<?xml version="1.0"?>
<VTKFile type="UnstructuredGrid"  version="0.1"  >
<UnstructuredGrid>
<Piece  NumberOfPoints="4372" NumberOfCells="8502">
<Points>
<DataArray  type="Float64"  NumberOfComponents="3"  format="ascii">-2 2 0  0 2 0  0 -2 0  -2 -2 0  -1.949999999999792 2 0  -1.899999999999584 2 0  -1.849999999999375 2 0  -1.799999999999167 2 0  -1.749999999999002 2 0  -1.699999999999306 2 0  -1.649999999999653 2 0  -1.6 2 0  -1.550000000000346 2 0  -1.500000000000693 2 0  -1.45000000000104 2 0  -1.400000000001387 2 0  -1.350000000001733 2 0  -1.30000000000208 2 0  -1.250000000002427 2 0  -1.200000000002774 2 0  -1.150000000003121 2 0  -1.100000000003467 2 0  -1.050000000003814 2 0  -1.000000000004117 2 0  -0.9500000000039528 2 0  -0.9000000000037447 2 0  -0.8500000000035368 2 0  -0.8000000000033287 2 0  -0.7500000000031206 2 0  -0.7000000000029127 2 0  -0.6500000000027044 2 0  -0.6000000000024965 2 0  -0.5500000000022884 2 0  -0.5000000000020806 2 0  -0.4500000000018725 2 0  -0.4000000000016644 2 0  -0.3500000000014563 2 0  -0.3000000000012482 2 0  -0.2500000000010403 2 0  -0.200000000000832 2 0  -0.1500000000006243 2 0  -0.100000000000416 2 0  -0.0500000000002081 2 0  0 1.950000000000139 0  0 1.900000000000277 0  0 1.850000000000416 0  0 1.800000000000555 0  0 1.750000000000693 0  0 1.700000000000832 0  0 1.650000000000971 0  0 1.60000000000111 0  0 1.550000000001248 0  0 1.500000000001387 0  0 1.450000000001526 0  0 1.400000000001664 0  0 1.350000000001803 0  0 1.300000000001942 0  0 1.250000000002081 0  0 1.200000000002219 0  0 1.150000000002358 0  0 1.100000000002496 0  0 1.050000000002635 0  0 1.000000000002774 0  0 0.9500000000029125 0  0 0.9000000000030515 0  0 0.8500000000031902 0  0 0.8000000000033287 0  0 0.7500000000034674 0  0 0.7000000000036062 0  0 0.6500000000037449 0  0 0.6000000000038836 0  0 0.5500000000040224 0  0 0.5000000000041611 0  0 0.4500000000042998 0  0 0.4000000000044384 0  0 0.3500000000045771 0  0 0.3000000000047156 0  0 0.2500000000048543 0  0 0.2000000000049929 0  0 0.1500000000051318 0  0 0.1000000000052705 0  0 0.05000000000540905 0  0 5.504485756091526e-12 0  0 -0.04999999999459082 0  0 -0.09999999999472964 0  0 -0.149999999994868 0  0 -0.1999999999950068 0  0 -0.2499999999951457 0  0 -0.299999999995284 0  0 -0.3499999999954229 0  0 -0.3999999999955617 0  0 -0.4499999999957001 0  0 -0.4999999999958389 0  0 -0.5499999999959777 0  0 -0.5999999999961165 0  0 -0.6499999999962549 0  0 -0.6999999999963937 0  0 -0.7499999999965326 0  0 -0.7999999999966709 0  0 -0.8499999999968098 0  0 -0.8999999999969486 0  0 -0.949999999997087 0  0 -0.9999999999972258 0  0 -1.049999999997365 0  0 -1.099999999997503 0  0 -1.149999999997642 0  0 -1.199999999997781 0  0 -1.249999999997919 0  0 -1.299999999998058 0  0 -1.349999999998198 0  0 -1.399999999998336 0  0 -1.449999999998474 0  0 -1.499999999998613 0  0 -1.549999999998751 0  0 -1.599999999998891 0  0 -1.64999999999903 0  0 -1.699999999999168 0  0 -1.749999999999306 0  0 -1.799999999999445 0  0 -1.849999999999584 0  0 -1.899999999999723 0  0 -1.949999999999862 0  -0.04999999999990573 -2 0  -0.0999999999997993 -2 0  -0.1499999999997056 -2 0  -0.1999999999996293 -2 0  -0.2499999999995475 -2 0  -0.2999999999994072 -2 0  -0.3499999999992615 -2 0  -0.3999999999991157 -2 0  -0.44999999999897 -2 0  -0.4999999999988242 -2 0  -0.5499999999986784 -2 0  -0.5999999999985328 -2 0  -0.649999999998387 -2 0  -0.6999999999982413 -2 0  -0.7499999999980955 -2 0  -0.7999999999979498 -2 0  -0.8499999999978042 -2 0  -0.8999999999976585 -2 0  -0.9499999999975127 -2 0  -0.9999999999973885 -2 0  -1.049999999997498 -2 0  -1.09999999999763 -2 0  -1.149999999997762 -2 0  -1.199999999997894 -2 0  -1.249999999998025 -2 0  -1.299999999998157 -2 0  -1.349999999998289 -2 0  -1.39999999999842 -2 0  -1.449999999998552 -2 0  -1.499999999998683 -2 0  -1.549999999998815 -2 0  -1.599999999998947 -2 0  -1.649999999999078 -2 0  -1.69999999999921 -2 0  -1.749999999999342 -2 0  -1.799999999999474 -2 0  -1.849999999999605 -2 0  -1.899999999999737 -2 0  -1.949999999999869 -2 0  -2 -1.950000000000139 0  -2 -1.900000000000277 0  -2 -1.850000000000416 0  -2 -1.800000000000555 0  -2 -1.750000000000693 0  -2 -1.700000000000832 0  -2 -1.650000000000971 0  -2 -1.60000000000111 0  -2 -1.550000000001248 0  -2 -1.500000000001387 0  -2 -1.450000000001526 0  -2 -1.400000000001664 0  -2 -1.350000000001803 0  -2 -1.300000000001942 0  -2 -1.250000000002081 0  -2 -1.200000000002219 0  -2 -1.150000000002358 0  -2 -1.100000000002496 0  -2 -1.050000000002635 0  -2 -1.000000000002774 0  -2 -0.9500000000029125 0  -2 -0.9000000000030515 0  -2 -0.8500000000031902 0  -2 -0.8000000000033287 0  -2 -0.7500000000034674 0  -2 -0.7000000000036062 0  -2 -0.6500000000037449 0  -2 -0.6000000000038836 0  -2 -0.5500000000040224 0  -2 -0.5000000000041611 0  -2 -0.4500000000042998 0  -2 -0.4000000000044384 0  -2 -0.3500000000045771 0  -2 -0.3000000000047156 0  -2 -0.2500000000048543 0  -2 -0.2000000000049929 0  -2 -0.1500000000051318 0  -2 -0.1000000000052705 0  -2 -0.05000000000540905 0  -2 -5.504485756091526e-12 0  -2 0.04999999999459082 0  -2 0.09999999999472964 0  -2 0.149999999994868 0  -2 0.1999999999950068 0  -2 0.2499999999951457 0  -2 0.299999999995284 0  -2 0.3499999999954229 0  -2 0.3999999999955617 0  -2 0.4499999999957001 0  -2 0.4999999999958389 0  -2 0.5499999999959777 0  -2 0.5999999999961165 0  -2 0.6499999999962549 0  -2 0.6999999999963937 0  -2 0.7499999999965326 0  -2 0.7999999999966709 0  -2 0.8499999999968098 0  -2 0.8999999999969486 0  -2 0.949999999997087 0  -2 0.9999999999972258 0  -2 1.049999999997365 0  -2 1.099999999997503 0  -2 1.149999999997642 0  -2 1.199999999997781 0  -2 1.249999999997919 0  -2 1.299999999998058 0  -2 1.349999999998198 0  -2 1.399999999998336 0  -2 1.449999999998474 0  -2 1.499999999998613 0  -2 1.549999999998751 0  -2 1.599999999998891 0  -2 1.64999999999903 0  -2 1.699999999999168 0  -2 1.749999999999306 0  -2 1.799999999999445 0  -2 1.849999999999584 0  -2 1.899999999999723 0  -2 1.949999999999862 0  -0.9991019297010011 -0.3216894116769606 0  -1.001123860021573 0.7747860510049681 0  -1.157001840564423 -1.161067247012082 0  -1.338027560051535 1.335779534439809 0  -0.6597222222209854 1.340277777778947 0  -0.6585505322915344 0.2210104638722434 0  -1.342670381551713 0.2273264508688188 0  -0.6282204758073073 -0.8120080430170664 0  -0.584236517600881 -1.424312893620663 0  -1.444216308265114 -0.6762220291217811 0  -0.5052068177397626 0.8617966625436217 0  -1.495725541732084 0.8726406067560636 0  -0.5012956875285356 -0.2537377131698332 0  -1.505964779037762 -1.506864731248248 0  -1.533439101629034 -0.2141932377592857 0  -0.9980909254944228 -1.563025322244478 0  -1.573871097078973 -1.076090339205781 0  -0.9938363905916023 1.574658399668859 0  -1.034823301857025 -0.7463046737786232 0  -1.613643420611705 1.613643420611667 0  -0.3789826634893113 1.622833641383097 0  -0.9969623469406674 0.06224895986291776 0  -0.9977570821219073 1.152964911765466 0  -0.3827586671415756 0.4981078379584384 0  -1.617241332858342 0.4981078379584687 0  -0.3735162279179589 -1.10055932464888 0  -0.9514697352838486 0.4195344991084976 0  -0.3671724871528862 -0.5890291676826473 0  -0.8024708669961921 -1.130631989953667 0  -0.3498086031259764 1.176326426441 0  -1.654591699695181 1.175475929606857 0  -0.3418462529951587 0.05839036814553086 0  -1.276352049535552 0.5646214960700082 0  -0.3455726757630372 -1.654274000872155 0  -1.662000930981631 0.09800841401402562 0  -0.7326605900058469 -0.5029780286614124 0  -0.6815317218188973 0.6015493889244842 0  -1.294915051768271 1.68349586060536 0  -0.6978609120161386 1.682418596511037 0  -1.69042813419972 -0.4820149800903958 0  -0.7177378365368432 -1.691938564923942 0  -1.295041566734205 -0.3964989221993158 0  -1.257425593209587 -1.693594420665469 0  -1.246383246782414 -0.1148360514526407 0  -0.7362449271051545 -0.05964032805167522 0  -1.707983706106591 -0.8099422821034401 0  -0.7716224277305496 0.9720234774828133 0  -1.275827556233888 1.059370830779667 0  -1.709731219610966 -1.713515019749574 0  -0.283604077223767 -1.378462113197051 0  -1.331628086330126 -0.9256871504417986 0  -1.718803648671523 -1.313287096736098 0  -1.237157326776588 -1.417624750871973 0  -0.2754377852160807 -0.8405670548436512 0  -0.2604914310470714 0.745077019249353 0  -1.729633983752603 0.7365041208839631 0  -0.2591591556650803 -0.3445128723686334 0  -0.2497705497594995 0.2862378673199174 0  -0.2571319926197782 1.401471300128245 0  -1.750457518478978 1.404891698644917 0  -0.8313391195977098 -1.383947161511035 0  -1.24247470005791 0.8083576983762071 0  -1.75762809210058 -0.121394575294928 0  -1.436009639427774 -1.277692839795198 0  -0.9951285024698884 -0.9801850598617781 0  -0.5860531098993602 1.102916873865959 0  -1.107154037528234 1.367740498542844 0  -1.765353655027761 0.3139359895551974 0  -0.239693234576285 0.9675382248711792 0  -1.762311524625569 0.9715314837693784 0  -1.453060458314344 0.01668426334404738 0  -1.118216683883963 0.2510494134873997 0  -1.487314750788142 -1.768895281943666 0  -0.775695807447912 -0.2851187916602083 0  -1.775021992875828 1.773058151300929 0  -0.2244440016626344 1.771853493176412 0  -0.8797519944267721 1.389822301404418 0  -1.220958717521525 -0.6178523500889427 0  -0.59343770640056 -1.180817576357191 0  -0.9262618789157869 -1.776942446977449 0  -0.2205428235968764 -0.1260615883490472 0  -1.10972339161439 1.777127575560661 0  -0.9394997616645768 -0.5365790009321401 0  -0.812081892264416 -0.7153463049796221 0  -1.783917055200667 -1.008716696077253 0  -0.515263853692324 -1.788606832309386 0  -0.8883686379713935 1.780240085569055 0  -1.545545177082075 0.2916466799431231 0  -1.490071498349099 1.777107893879804 0  -0.5133806951054479 1.777756514587614 0  -1.042544744196485 -1.335739934857762 0  -0.8641039527440014 0.2249999999994 0  -1.475046450324973 0.6546028915744984 0  -1.529677928948796 1.412892352790367 0  -0.4613578028330296 1.41527900122371 0  -1.790928681625402 -1.
[...]
<PointData  Vectors="f_1087-0"> 
<DataArray  type="Float64"  Name="f_1087-0"  NumberOfComponents="3" format="ascii">-5.3754113193452560e-03 7.2320494906308167e-05 0.0000000000000000e+00  7.9290841327043955e-03 0.0000000000000000e+00 0.0000000000000000e+00  8.1823702386120221e-03 0.0000000000000000e+00 0.0000000000000000e+00  3.1959468689568832e-01 3.6027213544705450e-01 0.0000000000000000e+00  -1.4944206267941984e-03 4.4801054842948593e-03 0.0000000000000000e+00  4.9361714637892299e-04 9.8304474600194097e-04 0.0000000000000000e+00  3.9432274137464387e-03 5.2379165375755314e-03 0.0000000000000000e+00  -4.6618969562058315e-04 1.4404589833530508e-03 0.0000000000000000e+00  -9.8851418170707106e-04 7.8696620879542588e-04 0.0000000000000000e+00  4.3912657374817980e-04 1.7978067909941290e-03 0.0000000000000000e+00  2.2086836335112384e-02 2.7131709899832065e-03 0.0000000000000000e+00  1.7142864594259538e-02 7.8176235214726911e-04 0.0000000000000000e+00  3.3593629483304787e-03 1.1258935998477966e-03 0.0000000000000000e+00  1.4612291647730384e-02 1.1061639877485970e-03 0.0000000000000000e+00  7.8448802147486826e-03 6.0756281107508994e-03 0.0000000000000000e+00  3.9460655014854551e-03 2.9533493671870538e-03 0.0000000000000000e+00  7.4306055300254348e-03 -2.5711128590769006e-02 0.0000000000000000e+00  2.5118882722081414e-02 2.7473587572066954e-03 0.0000000000000000e+00  3.8938544957266910e-02 8.3214486438158274e-03 0.0000000000000000e+00  2.7939680009482098e-03 1.1155564792130115e-02 0.0000000000000000e+00  -3.4984155915517137e-02 -1.5943749393005788e-02 0.0000000000000000e+00  1.0562249818688490e-03 -2.0023076273128187e-02 0.0000000000000000e+00  8.3584345253088360e-03 2.2901617230942561e-03 0.0000000000000000e+00  3.5241744575461968e-03 -5.0596841218658118e-04 0.0000000000000000e+00  1.0620824590138583e-02 3.5510005800228006e-02 0.0000000000000000e+00  9.5506798585644308e-03 1.0236575752804601e-02 0.0000000000000000e+00  1.5468177359722005e-03 7.9557656021751688e-02 0.0000000000000000e+00  1.6795639941367204e-02 7.2578044953400722e-04 0.0000000000000000e+00  5.0578334393420792e-02 1.5021846534717838e-03 0.0000000000000000e+00  9.9988416225741412e-03 3.9946495087872791e-02 0.0000000000000000e+00  1.3548521496307248e-02 8.4532799781794760e-03 0.0000000000000000e+00  1.2645879611195345e-02 9.8012352680056074e-03 0.0000000000000000e+00  -5.9053458943966283e-02 1.6525129884047470e-02 0.0000000000000000e+00  -3.0018259319425762e-02 2.7707088570946573e-02 0.0000000000000000e+00  -2.8976348271530224e-02 2.9644344260139118e-03 0.0000000000000000e+00  1.1734775182441828e-03 1.7347598724251578e-02 0.0000000000000000e+00  -2.3790488780956194e-02 -2.5047169981481310e-02 0.0000000000000000e+00  2.3938427891573039e-04 -1.9746872033745182e-02 0.0000000000000000e+00  2.8980611137542443e-03 1.7667223063398574e-02 0.0000000000000000e+00  2.8388640024565983e-03 3.7406551427076845e-03 0.0000000000000000e+00  1.6941879301011729e-02 1.2387630074240593e-02 0.0000000000000000e+00  2.1547050220353869e-02 4.3054043122197211e-02 0.0000000000000000e+00  1.6374840648308769e-02 1.0280326445356249e-03 0.0000000000000000e+00  2.2845417450983004e-02 0.0000000000000000e+00 0.0000000000000000e+00  1.5725908149178389e-02 0.0000000000000000e+00 0.0000000000000000e+00  -1.9373473979502703e-02 0.0000000000000000e+00 0.0000000000000000e+00  -1.1043072126464073e-02 0.0000000000000000e+00 0.0000000000000000e+00  -8.1086458039102277e-03 0.0000000000000000e+00 0.0000000000000000e+00  -9.1458529682327400e-03 0.0000000000000000e+00 0.0000000000000000e+00  7.3957560827373359e-04 0.0000000000000000e+00 0.0000000000000000e+00  1.1077082089457603e-02 0.0000000000000000e+00 0.0000000000000000e+00  1.0822564021946531e-02 0.0000000000000000e+00 0.0000000000000000e+00  1.2604781242938682e-02 0.0000000000000000e+00 0.0000000000000000e+00  -2.2987454368225647e-03 0.0000000000000000e+00 0.0000000000000000e+00  -7.4255498023768546e-02 0.0000000000000000e+00 0.0000000000000000e+00  -2.3907298128030434e-02 0.0000000000000000e+00 0.0000000000000000e+00  2.2414748499749268e-02 0.0000000000000000e+00 0.0000000000000000e+00  9.3069281802415249e-02 0.0000000000000000e+00 0.0000000000000000e+00  1.9471104267099040e-02 0.0000000000000000e+00 0.0000000000000000e+00  8.8212757447319490e-02 0.0000000000000000e+00 0.0000000000000000e+00  1.8401273734846790e-01 0.0000000000000000e+00 0.0000000000000000e+00  9.9112828089521737e-02 0.0000000000000000e+00 0.0000000000000000e+00  5.6184898787100951e-02 0.0000000000000000e+00 0.0000000000000000e+00  -8.0462360651824189e-02 0.0000000000000000e+00 0.0000000000000000e+00  9.3923408465757217e-03 0.0000000000000000e+00 0.0000000000000000e+00  -1.4046700022863137e-03 0.0000000000000000e+00 0.0000000000000000e+00  7.1637055386341381e-02 0.0000000000000000e+00 0.0000000000000000e+00  7.7821167242015585e-02 0.0000000000000000e+00 0.0000000000000000e+00  9.3246882594914815e-02 0.0000000000000000e+00 0.0000000000000000e+00  -2.0595554512074267e-04 0.0000000000000000e+00 0.0000000000000000e+00  1.4610971796115343e-01 0.0000000000000000e+00 0.0000000000000000e+00  4.2236816574261662e-02 0.0000000000000000e+00 0.0000000000000000e+00  1.9644851762578819e-01 0.0000000000000000e+00 0.0000000000000000e+00  2.2753336502477228e-01 0.0000000000000000e+00 0.0000000000000000e+00  -1.2314968949644345e-01 0.0000000000000000e+00 0.0000000000000000e+00  -1.1084937504894110e-01 0.0000000000000000e+00 0.0000000000000000e+00  1.0818703771607165e-01 0.0000000000000000e+00 0.0000000000000000e+00  6.8421042910086619e-02 0.0000000000000000e+00 0.0000000000000000e+00  1.7792229082464470e-01 0.0000000000000000e+00 0.0000000000000000e+00  1.1485308922449167e-01 0.0000000000000000e+00 0.0000000000000000e+00  -1.7867401086595056e-02 0.0000000000000000e+00 0.0000000000000000e+00  -1.4429654215684198e-01 0.0000000000000000e+00 0.0000000000000000e+00  1.1448466382597622e-01 0.0000000000000000e+00 0.0000000000000000e+00  -1.1627506207681096e-01 0.0000000000000000e+00 0.0000000000000000e+00  3.8965499463247483e-02 0.0000000000000000e+00 0.0000000000000000e+00  -2.9657283390262601e-01 0.0000000000000000e+00 0.0000000000000000e+00  6.5992976252530380e-02 0.0000000000000000e+00 0.0000000000000000e+00  3.2737888013196680e-02 0.0000000000000000e+00 0.0000000000000000e+00  -4.3128224885714328e-01 0.0000000000000000e+00 0.0000000000000000e+00  2.6155618355575297e-02 0.0000000000000000e+00 0.0000000000000000e+00  5.4386485648425881e-02 0.0000000000000000e+00 0.0000000000000000e+00  2.5862038428793820e-02 0.0000000000000000e+00 0.0000000000000000e+00  -9.8609846519331842e-03 0.0000000000000000e+00 0.0000000000000000e+00  3.0212373494730976e-01 0.0000000000000000e+00 0.0000000000000000e+00  -1.1875321914374924e-02 0.0000000000000000e+00 0.0000000000000000e+00  2.7712899332888424e-01 0.0000000000000000e+00 0.0000000000000000e+00  4.4149008058905433e-02 0.0000000000000000e+00 0.0000000000000000e+00  -7.4294201277189456e-04 0.0000000000000000e+00 0.0000000000000000e+00  3.3444474034190919e-01 0.0000000000000000e+00 0.0000000000000000e+00  5.9382802806410638e-02 0.0000000000000000e+00 0.0000000000000000e+00  1.0769456260617796e-01 0.0000000000000000e+00 0.0000000000000000e+00  9.1765580181687817e-02 0.0000000000000000e+00 0.0000000000000000e+00  7.4384958957882816e-02 0.0000000000000000e+00 0.0000000000000000e+00  5.6305620817796456e-02 0.0000000000000000e+00 0.0000000000000000e+00  3.2548396055531553e-01 0.0000000000000000e+00 0.0000000000000000e+00  -1.1470603502459275e-02 0.0000000000000000e+00 0.0000000000000000e+00  -1.3412032226235254e-02 0.0000000000000000e+00 0.0000000000000000e+00  -4.6273149551652556e-02 0.0000000000000000e+00 0.0000000000000000e+00  3.5702729001406530e-02 0.0000000000000000e+00 0.0000000000000000e+00  4.3178743440864878e-03 0.0000000000000000e+00 0.0000000000000000e+00  2.5473606527139772e-02 0.0000000000000000e+00 0.0000000000000000e+00  -6.9133457267151005e-02 0.0000000000000000e+00 0.0000000000000000e+00  -4.2912387600712677e-02 0.0000000000000000e+00 0.0000000000000000e+00  7.6253667519865009e-01 0.0000000000000000e+00 0.0000000000000000e+00  9.9775670412912357e-03 0.0000000000000000e+00 0.0000000000000000e+00  9.6275233173244823e-01 0.0000000000000000e+00 0.0000000000000000e+00  6.3140007767826926e-04 0.0000000000000000e+00 0.0000000000000000e+00  -3.2217216498505907e-01 0.0000000000000000e+00 0.0000000000000000e+00  1.0971208551012097e-01 0.0000000000000000e+00 0.0000000000000000e+00  2.0145740218121821e-02 0.0000000000000000e+00 0.0000000000000000e+00  -1.5840553817360831e-01 0.0000000000000000e+00 0.0000000000000000e+00  1.2587701579550661e+00 0.0000000000000000e+00 0.0000000000000000e+00  -1.5290839007259396e-01 2.3856466770890133e-02 0.0000000000000000e+00  7.1806307775813510e-02 7.8611483962834655e-02 0.0000000000000000e+00  -1.3232792762711515e-01 3.3602493914867006e-02 0.0000000000000000e+00  5.6520201176055322e-02 -2.4870209303211785e-01 0.0000000000000000e+00  3.2578640763275053e-02 1.1423100450442522e-01 0.0000000000000000e+00  1.2264490115107060e-01 2.1968681907357714e-02 0.0000000000000000e+00  4.7545218864272271e-01 1.1291501542482886e-01 0.0000000000000000e+00  4.3313697066647228e-01 1.2616564354304230e-01 0.0000000000000000e+00  1.4827395197885093e-01 1.4884708456382761e-01 0.0000000000000000e+00  9.5068993480225217e-01 9.3206628522220958e-01 0.0000000000000000e+00  1.3829573622222114e-02 5.9443045731125821e-01 0.0000000000000000e+00  -3.1065862749668407e-02 -8.2235580574394701e-02 0.0000000000000000e+00  4.4919892300348058e-01 8.4321688917988608e-03 0.0000000000000000e+00  9.0528475764250511e-03 3.3579239955582274e-01 0.0000000000000000e+00  4.7976652658034143e-02 1.6046552809729265e-02 0.0000000000000000e+00  1.6835455825359884e-02 5.0525602537509935e-02 0.0000000000000000e+00  -1.3743630815279288e-02 4.2008933405673521e-02 0.0000000000000000e+00  9.2803300244919396e-02 4.9494979363877256e-01 0.0000000000000000e+00  1.5358656365855283e-01 7.8682298107134244e-03 0.0000000000000000e+00  -1.5013935399422557e-02 5.9925978185881676e-02 0.0000000000000000e+00  2.1752921103728489e-02 4.0836767244769334e-01 0.0000000000000000e+00  -5.2773610423230061e-02 -5.6959467453893818e-02 0.0000000000000000e+00  2.9955626070046304e-01 7.6786493015816790e-03 0.0000000000000000e+00  1.1377539041740534e-01 7.8232012761729308e-02 0.0000000000000000e+00  -2.1812424860771319e-02 -2.0882292140982722e-02 0.0000000000000000e+00  9.7868058778596990e-03 -3.7373362116804039e-02 0.0000000000000000e+00  1.5704216159703613e-01 2.3728624764918459e-02 0.0000000000000000e+00  -4.3607542514486189e-02 3.4102344150399549e-01 0.0000000000000000e+00  2.5835810418088131e-03 -7.2278958143668942e-02 0.0000000000000000e+00  2.1199996567852530e-01 2.7034357879001536e-01 0.0000000000000000e+00  -9.9006220268781642e-03 4.4298254461187003e-01 0.0000000000000000e+00  -4.2271289882121858e-03 4.0523975772473947e-01 0.0000000000000000e+00  -5.1669557106199568e-02 4.6009973359175289e-02 0.0000000000000000e+00  3.5698142387762954e-01 4.2577811072889871e-01 0.0000000000000000e+00  -2.1753299101733498e-01 -2.6570137505867739e-03 0.0000000000000000e+00  3.7373736875360336e-01 3.8148067798975038e-01 0.0000000000000000e+00  1.5787808406924309e-01 1.4931208572983662e-01 0.0000000000000000e+00  1.4718421690564096e-01 -3.0269123533381220e-01 0.0000000000000000e+00  -3.4976768515602447e-01 3.6295569239414388e-01 0.0000000000000000e+00  -2.8855130627378239e-01 2.9894247143290753e-01 0.0000000000000000e+00  -2.5301127580449650e-01 2.9435219414269470e-01 0.0000000000000000e+00  -2.6503669530417551e-01 -2.6554397080995074e-01 0.0000000000000000e+00  4.6154077503247612e-02 2.2822524897941003e-02 0.0000000000000000e+00  2.9918013318671048e-02 2.5418965069006610e-01 0.0000000000000000e+00  4.0542647620492067e-01 1.0028756022242860e-02 0.0000000000000000e+00  -6.3765726176000766e-03 4.4960599191457729e-01 0.0000000000000000e+00  -1.2804234202976095e-01 -1.3960424640254443e-01 0.0000000000000000e+00  -1.1475171530228648e-01 -1.3276428640045615e-01 0.0000000000000000e+00  1.6372696941397698e-02 -7.3088568499145731e-02 0.0000000000000000e+00  1.3004196122199160e-03 2.7945888261283758e-01 0.0000000000000000e+00  -1.9094855556012432e-03 4.1611046834155180e-01 0.0000000000000000e+00  -3.0154017542855668e-03 -8.3870772107208003e-04 0.0000000000000000e+00  4.5616875248518757e-01 4.2344259109320326e-01 0.0000000000000000e+00  3.2112332226098450e-01 -4.1787307024235817e-02 0.0000000000000000e+00  -2.3347758902939122e-02 5.0054511301828086e-01 0.0000000000000000e+00  3.6153879486879625e-01 3.8888731601459552e-02 0.0000000000000000e+00  4.3074882775229101e-01 -1.3080363963123953e-02 0.0000000000000000e+00  1.6686590133025697e-01 4.6638134812853788e-01 0.0000000000000000e+00  -5.0857398400500943e-03 4.8130079385309621e-01 0.0000000000000000e+00  4.8743454708997724e-01 5.3467786567563333e-03 0.0000000000000000e+00  -1.0149730188016907e-01 -5.1252029619464129e-03 0.0000000000000000e+00  6.8614452598120303e-03 -1.9131547965944015e-01 0.0000000000000000e+00  2.0913507649335777e-01 8.0231267543757950e-02 0.0000000000000000e+00  -1.6712736674359019e-02 9.5488386645783144e-02 0.0000000000000000e+00  1.1459484400499291e-01 1.4373014630479955e-01 0.0000000000000000e+00  1.3952225570376395e-01 1.4899326783961156e-01 0.0000000000000000e+00  1.4622586697659473e-01 -2.1439175480043299e-01 0.0000000000000000e+00  -3.3522865955446044e-03 8.0709427107438517e-02 0.0000000000000000e+00  1.2505943163094810e-01 1.0195453057384182e-01 0.0000000000000000e+00  6.6787178960244914e-02 6.1476650956934664e-02 0.0000000000000000e+00  1.0938388374364880e-02 5.9738861470498172e-02 0.0000000000000000e+00  1.4120507354788925e-02 2.6209660823493636e-01 0.0000000000000000e+00  2.3730927470692845e-01 2.3212714406563389e-01 0.0000000000000000e+00  -6.8919775682526165e-04 1.7121910688783282e-01 0.0000000000000000e+00  4.7701575103969145e-03 8.6309922858516783e-02 0.0000000000000000e+00  5.1491614221199779e-02 1.7577412621029328e-03 0.0000000000000000e+00  2.0572519197449381e-02 1.1833062143969602e-02 0.0000000000000000e+00  -9.0008318050274219e-02 -7.6264143891543665e-04 0.0000000000000000e+00  -5.2922877473479332e-02 5.2719991713902334e-02 0.0000000000000000e+00  1.2711758777631077e-01 1.3859725542209383e-01 0.0000000000000000e+00  -5.9719690665265487e-02 5.1640492282297001e-02 0.0000000000000000e+00  -6.8811929455907722e-02 4.1963180842984761e-02 0.0000000000000000e+00  -5.9456118805322842e-03 -2.3803748917874679e-02 0.0000000000000000e+00  5.5957676798087996e-02 3.5385938219728405e-03 0.0000000000000000e+00  -5.7738884259613053e-04 6.7019181320566265e-02 0.0000000000000000e+00  1.3454565815006087e-01 1.2416020127475690e-01 0.0000000000000000e+00  1.1179214457949090e-02 7.5648113179758059e-02 0.0000000000000000e+00  9.0119422888523051e-03 3.0091984015280217e-02 0.0000000000000000e+00  -1.4014974644831622e-02 5.3190092518067347e-03 0.0000000000000000e+00  -1.5187403197101429e-01 -7.0255745532687153e-02 0.0000000000000000e+00  5.9615293235012936e-03 -3.5553226361446078e-01 0.0000000000000000e+00  9.1221071191309636e-02 5.4219889998104575e-03 0.0000000000000000e+00  4.2767213621445851e-02 2.3478469976514642e-02 0.0000000000000000e+00  3.2747760573123813e-02 2.7524520021554217e-02 0.0000000000000000e+00  6.0216723421086221e-02 4.1127984243425175e-02 0.0000000000000000e+00  -1.1551081792777456e-03 8.4504389496607712e-03 0.0000000000000000e+00  -2.6131502516766464e-03 -3.1213707599714070e-03 0.0000000000000000e+00  1.9423109877708816e-02 1.1385758304446235e-02 0.0000000000000000e+00  4.8389026954851373e-03 -3.2606585929466619e-03 0.0000000000000000e+00  8.3367506928575356e-03 -7.2733955844644675e-03 0.0000000000000000e+00  -8.2878003830610114e-02 -4.8072350489361412e-02 0.0000000000000000e+00  3.6928709982373461e-03 3.5115445887321192e-03 0.0000000000000000e+00  3.8895357094749653e-03 -3.0673493177229595e-02 0.0000000000000000e+00  -3.7346751142017118e-02 1.2468848935483572e-02 0.0000000000000000e+00  -3.7618946526134289e-02 -4.0957150987218166e-02 0.0000000000000000e+00  2.2991933414961824e-02 2.0132808392363550e-02 0.0000000000000000e+00  2.3874906376917124e-02 1.3389074646700831e-03 0.0000000000000000e+00  4.0985434880863834e-03 5.1508988117053619e-03 0.0000000000000000e+00  -3.8875117305824596e-02 2.3498821599903189e-03 0.0000000000000000e+00  3.4973519673474077e-02 2.7296126534437214e-02 0.0000000000000000e+00  -6.1549450842458414e-03 8.4041768543959288e-04 0.0000000000000000e+00  3.7750132547963936e-04 1.9106778665963740e-03 0.0000000000000000e+00  1.8553493026441624e-02 9.5990225525661634e-03 0.0000000000000000e+00  -1.0774286611520724e-03 -1.5312315877115826e-03 0.0000000000000000e+00  1.7879925711160544e-03 3.7534862221439680e-03 0.0000000000000000e+00  1.7076853108592460e-04 1.5954954496075566e-03 0.0000000000000000e+00  6.2347114586603269e-04 6.5033144000261711e-04 0.0000000000000000e+00  -1.9235915885190942e-03 -5.1062713708021935e-02 0.0000000000000000e+00  3.1497457226520609e-01 5.2136769202239175e-01 0.0000000000000000e+00  4.3406509546139588e-03 1.0794634142429354e-02 0.0000000000000000e+00  -8.8194837527479045e-02 -4.9878194992467144e-03 0.0000000000000000e+00  3.6367948676086226e-02 6.2369009078905802e-02 0.0000000000000000e+00  -3.3526127438043667e-02 -7.2645617122197720e-03 0.0000000000000000e+00  2.4536959927650470e-01 2.9973331041488033e-01 0.0000000000000000e+00  5.2080997134372572e-02 6.3721577000580287e-03 0.0000000000000000e+00  -5.0477379990975131e-02 -1.5136548788931378e-01 0.0000000000000000e+00  8.5182828213056894e-02 1.3366202352106904e-01 0.0000000000000000e+00  4.4311896603049983e-01 -3.4625588402333474e-01 0.0000000000000000e+00  -5.1692597670012164e-02 2.0326170564366836e-01 0.0000000000000000e+00  3.4787403694974683e-05 -1.2778497959046974e-03 0.0000000000000000e+00  1.9914447446918507e-01 -1.2245144532820158e-01 0.0000000000000000e+00  6.9327199615721619e-02 -1.6032416693490514e-01 0.0000000000000000e+00  1.0758809379672740e-01 1.0084135179263924e-01 0.0000000000000000e+00  6.5747618073532327e-02 6.3427523458724600e-02 0.0000000000000000e+00  3.8429418192720510e-01 1.4137642622076013e-01 0.0000000000000000e+00  5.7761277098776515e-02 2.8475148481441850e-02 0.0000000000000000e+00  3.9567090238273567e-01 3.1126236713926048e-01 0.0000000000000000e+00  6.2724241513283843e-03 1.0654686906403282e-02 0.0000000000000000e+00  3.6216830677379191e-03 -3.4890237723623884e-03 0.0000000000000000e+00  3.1956845068453077e-01 3.1011880374547895e-01 0.0000000000000000e+00  1.1756238144738604e-01 3.0116395541359545e-02 0.0000000000000000e+00  -4.7372184546009673e-02 2.0769069662863113e-01 0.0000000000000000e+00  -2.2671728461061669e-01 4.0585941754850710e-02 0.0000000000000000e+00  1.5368217288219591e-01 1.1352239391220381e-01 0.0000000000000000e+00  1.3588955582326043e-01 1.0831860300874262e-01 0.0000000000000000e+00  -2.5804688920605015e-02 2.5848061473183644e-02 0.0000000000000000e+00  1.5234911845500437e-01 1.5997807577633172e-01 0.0000000000000000e+00  -1.1909040689106812e-01 8.5533976343994192e-03 0.0000000000000000e+00  3.5479774490437668e-02 4.8140952211826963e-03 0.0000000000000000e+00  1.8525004076016781e-03 3.9358974928688706e-01 0.0000000000000000e+00  2.7189420348102712e-03 2.2712699440476672e-02 0.0000000000000000e+00  1.5104117136865508e-01 9.0085956399819211e-01 0.0000000000000000e+00  1.2783045484764535e-01 1.0156628283379995e-01 0.0000000000000000e+00  3.3282034262763982e-01 -1.5465352140378893e-01 0.0000000000000000e+00  -2.2914502054655297e-02 5.6789096733461046e-02 0.0000000000000000e+00  6.3132545516798588e-02 1.6843655999885260e-02 0.0000000000000000e+00  2.7328027952606148e-02 1.0133602537077592e-01 0.0000000000000000e+00  5.5796794801789867e-02 6.1614790585057859e-02 0.0000000000000000e+00  1.3235201186794074e-01 1.6179402940256574e-01 0.0000000000000000e+00  -1.4807681321009891e-01 -1.5787703251864466e-01 0.0000000000000000e+00  3.343937