<?xml version="1.0"?>
<VTKFile type="UnstructuredGrid"  version="0.1"  >
<UnstructuredGrid>
<Piece  NumberOfPoints="4372" NumberOfCells="8502">
<Points>
<DataArray  type="Float64"  NumberOfComponents="3"  format="ascii">-2 2 0  0 2 0  0 -2 0  -2 -2 0  -1.949999999999792 2 0  -1.899999999999584 2 0  -1.849999999999375 2 0  -1.799999999999167 2 0  -1.749999999999002 2 0  -1.699999999999306 2 0  -1.649999999999653 2 0  -1.6 2 0  -1.550000000000346 2 0  -1.500000000000693 2 0  -1.45000000000104 2 0  -1.400000000001387 2 0  -1.350000000001733 2 0  -1.30000000000208 2 0  -1.250000000002427 2 0  -1.200000000002774 2 0  -1.150000000003121 2 0  -1.100000000003467 2 0  -1.050000000003814 2 0  -1.000000000004117 2 0  -0.9500000000039528 2 0  -0.9000000000037447 2 0  -0.8500000000035368 2 0  -0.8000000000033287 2 0  -0.7500000000031206 2 0  -0.7000000000029127 2 0  -0.6500000000027044 2 0  -0.6000000000024965 2 0  -0.5500000000022884 2 0  -0.5000000000020806 2 0  -0.4500000000018725 2 0  -0.4000000000016644 2 0  -0.3500000000014563 2 0  -0.3000000000012482 2 0  -0.2500000000010403 2 0  -0.200000000000832 2 0  -0.1500000000006243 2 0  -0.100000000000416 2 0  -0.0500000000002081 2 0  0 1.950000000000139 0  0 1.900000000000277 0  0 1.850000000000416 0  0 1.800000000000555 0  0 1.750000000000693 0  0 1.700000000000832 0  0 1.650000000000971 0  0 1.60000000000111 0  0 1.550000000001248 0  0 1.500000000001387 0  0 1.450000000001526 0  0 1.400000000001664 0  0 1.350000000001803 0  0 1.300000000001942 0  0 1.250000000002081 0  0 1.200000000002219 0  0 1.150000000002358 0  0 1.100000000002496 0  0 1.050000000002635 0  0 1.000000000002774 0  0 0.9500000000029125 0  0 0.9000000000030515 0  0 0.8500000000031902 0  0 0.8000000000033287 0  0 0.7500000000034674 0  0 0.7000000000036062 0  0 0.6500000000037449 0  0 0.6000000000038836 0  0 0.5500000000040224 0  0 0.5000000000041611 0  0 0.4500000000042998 0  0 0.4000000000044384 0  0 0.3500000000045771 0  0 0.3000000000047156 0  0 0.2500000000048543 0  0 0.2000000000049929 0  0 0.1500000000051318 0  0 0.1000000000052705 0  0 0.05000000000540905 0  0 5.504485756091526e-12 0  0 -0.04999999999459082 0  0 -0.09999999999472964 0  0 -0.149999999994868 0  0 -0.1999999999950068 0  0 -0.2499999999951457 0  0 -0.299999999995284 0  0 -0.3499999999954229 0  0 -0.3999999999955617 0  0 -0.4499999999957001 0  0 -0.4999999999958389 0  0 -0.5499999999959777 0  0 -0.5999999999961165 0  0 -0.6499999999962549 0  0 -0.6999999999963937 0  0 -0.7499999999965326 0  0 -0.7999999999966709 0  0 -0.8499999999968098 0  0 -0.8999999999969486 0  0 -0.949999999997087 0  0 -0.9999999999972258 0  0 -1.049999999997365 0  0 -1.099999999997503 0  0 -1.149999999997642 0  0 -1.199999999997781 0  0 -1.249999999997919 0  0 -1.299999999998058 0  0 -1.349999999998198 0  0 -1.399999999998336 0  0 -1.449999999998474 0  0 -1.499999999998613 0  0 -1.549999999998751 0  0 -1.599999999998891 0  0 -1.64999999999903 0  0 -1.699999999999168 0  0 -1.749999999999306 0  0 -1.799999999999445 0  0 -1.849999999999584 0  0 -1.899999999999723 0  0 -1.949999999999862 0  -0.04999999999990573 -2 0  -0.0999999999997993 -2 0  -0.1499999999997056 -2 0  -0.1999999999996293 -2 0  -0.2499999999995475 -2 0  -0.2999999999994072 -2 0  -0.3499999999992615 -2 0  -0.3999999999991157 -2 0  -0.44999999999897 -2 0  -0.4999999999988242 -2 0  -0.5499999999986784 -2 0  -0.5999999999985328 -2 0  -0.649999999998387 -2 0  -0.6999999999982413 -2 0  -0.7499999999980955 -2 0  -0.7999999999979498 -2 0  -0.8499999999978042 -2 0  -0.8999999999976585 -2 0  -0.9499999999975127 -2 0  -0.9999999999973885 -2 0  -1.049999999997498 -2 0  -1.09999999999763 -2 0  -1.149999999997762 -2 0  -1.199999999997894 -2 0  -1.249999999998025 -2 0  -1.299999999998157 -2 0  -1.349999999998289 -2 0  -1.39999999999842 -2 0  -1.449999999998552 -2 0  -1.499999999998683 -2 0  -1.549999999998815 -2 0  -1.599999999998947 -2 0  -1.649999999999078 -2 0  -1.69999999999921 -2 0  -1.749999999999342 -2 0  -1.799999999999474 -2 0  -1.849999999999605 -2 0  -1.899999999999737 -2 0  -1.949999999999869 -2 0  -2 -1.950000000000139 0  -2 -1.900000000000277 0  -2 -1.850000000000416 0  -2 -1.800000000000555 0  -2 -1.750000000000693 0  -2 -1.700000000000832 0  -2 -1.650000000000971 0  -2 -1.60000000000111 0  -2 -1.550000000001248 0  -2 -1.500000000001387 0  -2 -1.450000000001526 0  -2 -1.400000000001664 0  -2 -1.350000000001803 0  -2 -1.300000000001942 0  -2 -1.250000000002081 0  -2 -1.200000000002219 0  -2 -1.150000000002358 0  -2 -1.100000000002496 0  -2 -1.050000000002635 0  -2 -1.000000000002774 0  -2 -0.9500000000029125 0  -2 -0.9000000000030515 0  -2 -0.8500000000031902 0  -2 -0.8000000000033287 0  -2 -0.7500000000034674 0  -2 -0.7000000000036062 0  -2 -0.6500000000037449 0  -2 -0.6000000000038836 0  -2 -0.5500000000040224 0  -2 -0.5000000000041611 0  -2 -0.4500000000042998 0  -2 -0.4000000000044384 0  -2 -0.3500000000045771 0  -2 -0.3000000000047156 0  -2 -0.2500000000048543 0  -2 -0.2000000000049929 0  -2 -0.1500000000051318 0  -2 -0.1000000000052705 0  -2 -0.05000000000540905 0  -2 -5.504485756091526e-12 0  -2 0.04999999999459082 0  -2 0.09999999999472964 0  -2 0.149999999994868 0  -2 0.1999999999950068 0  -2 0.2499999999951457 0  -2 0.299999999995284 0  -2 0.3499999999954229 0  -2 0.3999999999955617 0  -2 0.4499999999957001 0  -2 0.4999999999958389 0  -2 0.5499999999959777 0  -2 0.5999999999961165 0  -2 0.6499999999962549 0  -2 0.6999999999963937 0  -2 0.7499999999965326 0  -2 0.7999999999966709 0  -2 0.8499999999968098 0  -2 0.8999999999969486 0  -2 0.949999999997087 0  -2 0.9999999999972258 0  -2 1.049999999997365 0  -2 1.099999999997503 0  -2 1.149999999997642 0  -2 1.199999999997781 0  -2 1.249999999997919 0  -2 1.299999999998058 0  -2 1.349999999998198 0  -2 1.399999999998336 0  -2 1.449999999998474 0  -2 1.499999999998613 0  -2 1.549999999998751 0  -2 1.599999999998891 0  -2 1.64999999999903 0  -2 1.699999999999168 0  -2 1.749999999999306 0  -2 1.799999999999445 0  -2 1.849999999999584 0  -2 1.899999999999723 0  -2 1.949999999999862 0  -0.9991019297010011 -0.3216894116769606 0  -1.001123860021573 0.7747860510049681 0  -1.157001840564423 -1.161067247012082 0  -1.338027560051535 1.335779534439809 0  -0.6597222222209854 1.340277777778947 0  -0.6585505322915344 0.2210104638722434 0  -1.342670381551713 0.2273264508688188 0  -0.6282204758073073 -0.8120080430170664 0  -0.584236517600881 -1.424312893620663 0  -1.444216308265114 -0.6762220291217811 0  -0.5052068177397626 0.8617966625436217 0  -1.495725541732084 0.8726406067560636 0  -0.5012956875285356 -0.2537377131698332 0  -1.505964779037762 -1.506864731248248 0  -1.533439101629034 -0.2141932377592857 0  -0.9980909254944228 -1.563025322244478 0  -1.573871097078973 -1.076090339205781 0  -0.9938363905916023 1.574658399668859 0  -1.034823301857025 -0.7463046737786232 0  -1.613643420611705 1.613643420611667 0  -0.3789826634893113 1.622833641383097 0  -0.9969623469406674 0.06224895986291776 0  -0.9977570821219073 1.152964911765466 0  -0.3827586671415756 0.4981078379584384 0  -1.617241332858342 0.4981078379584687 0  -0.3735162279179589 -1.10055932464888 0  -0.9514697352838486 0.4195344991084976 0  -0.3671724871528862 -0.5890291676826473 0  -0.8024708669961921 -1.130631989953667 0  -0.3498086031259764 1.176326426441 0  -1.654591699695181 1.175475929606857 0  -0.3418462529951587 0.05839036814553086 0  -1.276352049535552 0.5646214960700082 0  -0.3455726757630372 -1.654274000872155 0  -1.662000930981631 0.09800841401402562 0  -0.7326605900058469 -0.5029780286614124 0  -0.6815317218188973 0.6015493889244842 0  -1.294915051768271 1.68349586060536 0  -0.6978609120161386 1.682418596511037 0  -1.69042813419972 -0.4820149800903958 0  -0.7177378365368432 -1.691938564923942 0  -1.295041566734205 -0.3964989221993158 0  -1.257425593209587 -1.693594420665469 0  -1.246383246782414 -0.1148360514526407 0  -0.7362449271051545 -0.05964032805167522 0  -1.707983706106591 -0.8099422821034401 0  -0.7716224277305496 0.9720234774828133 0  -1.275827556233888 1.059370830779667 0  -1.709731219610966 -1.713515019749574 0  -0.283604077223767 -1.378462113197051 0  -1.331628086330126 -0.9256871504417986 0  -1.718803648671523 -1.313287096736098 0  -1.237157326776588 -1.417624750871973 0  -0.2754377852160807 -0.8405670548436512 0  -0.2604914310470714 0.745077019249353 0  -1.729633983752603 0.7365041208839631 0  -0.2591591556650803 -0.3445128723686334 0  -0.2497705497594995 0.2862378673199174 0  -0.2571319926197782 1.401471300128245 0  -1.750457518478978 1.404891698644917 0  -0.8313391195977098 -1.383947161511035 0  -1.24247470005791 0.8083576983762071 0  -1.75762809210058 -0.121394575294928 0  -1.436009639427774 -1.277692839795198 0  -0.9951285024698884 -0.9801850598617781 0  -0.5860531098993602 1.102916873865959 0  -1.107154037528234 1.367740498542844 0  -1.765353655027761 0.3139359895551974 0  -0.239693234576285 0.9675382248711792 0  -1.762311524625569 0.9715314837693784 0  -1.453060458314344 0.01668426334404738 0  -1.118216683883963 0.2510494134873997 0  -1.487314750788142 -1.768895281943666 0  -0.775695807447912 -0.2851187916602083 0  -1.775021992875828 1.773058151300929 0  -0.2244440016626344 1.771853493176412 0  -0.8797519944267721 1.389822301404418 0  -1.220958717521525 -0.6178523500889427 0  -0.59343770640056 -1.180817576357191 0  -0.9262618789157869 -1.776942446977449 0  -0.2205428235968764 -0.1260615883490472 0  -1.10972339161439 1.777127575560661 0  -0.9394997616645768 -0.5365790009321401 0  -0.812081892264416 -0.7153463049796221 0  -1.783917055200667 -1.008716696077253 0  -0.515263853692324 -1.788606832309386 0  -0.8883686379713935 1.780240085569055 0  -1.545545177082075 0.2916466799431231 0  -1.490071498349099 1.777107893879804 0  -0.5133806951054479 1.777756514587614 0  -1.042544744196485 -1.335739934857762 0  -0.8641039527440014 0.2249999999994 0  -1.475046450324973 0.6546028915744984 0  -1.529677928948796 1.412892352790367 0  -0.4613578028330296 1.41527900122371 0  -1.790928681625402 -1.
[...]
<PointData  Scalars="f_1087-1"> 
<DataArray  type="Float64"  Name="f_1087-1"  format="ascii">1.4690282110273504e-04  2.7777934472914849e-03  9.6317655653201925e-02  8.0468438625982321e-03  7.8030148855455343e-05  4.9025185249225597e-04  3.0612095580316825e-05  2.2168459313113642e-04  1.1393778353258730e-04  3.5413272270823885e-04  5.2015482901530616e-04  1.3525326658340381e-03  -1.8491163444146524e-04  9.7642596872019082e-04  3.9321061134650864e-04  5.4406735691310429e-04  -1.6383907871837604e-03  4.7339726143997129e-03  6.8420869268732403e-03  6.0194919448302718e-04  -5.4508772392350933e-03  -6.5969411534948352e-03  4.5983262786545480e-04  6.2111477011109716e-04  2.0671142825240034e-03  3.3084061473417897e-03  3.4527556004954997e-03  2.6218840176757468e-03  1.8462554941527818e-03  2.8196593560754490e-04  1.9715808062101027e-03  -3.3794253287198310e-03  -9.3575408609659419e-03  5.2420739796322580e-04  4.3271189728449327e-03  3.7105627212029339e-03  2.9891023022485998e-03  -5.0109540760872630e-04  2.4399190567140020e-03  3.4682485242134090e-05  1.5473549103560730e-03  3.2746444808022042e-03  6.6820628387222209e-03  5.1430239985249641e-03  -6.9549809666266948e-03  7.0347271114194251e-03  6.7835939799476691e-03  4.2715279024062962e-03  -9.4392841024383035e-04  8.4770389211475533e-03  3.6238965536820461e-03  5.7599642007528182e-03  6.3487357108434669e-04  1.9147803373100444e-02  2.4843421974675425e-02  6.3526120962962749e-04  7.3351588132695572e-03  3.2688347574167135e-04  5.1364660308420088e-03  1.6059796029039900e-02  1.8952166653923613e-02  -1.7259954785773331e-03  2.7812884264272360e-04  9.0054373957724389e-03  -3.6518454964426137e-04  2.0550428350698813e-03  3.0136398361390697e-03  1.1173076699599766e-02  -6.1554283002025825e-03  1.0743054890168549e-01  8.2847216556193995e-02  -4.8325125975438518e-03  2.1683276171258668e-02  2.4173830396795493e-02  1.6773321572581278e-02  -8.5334080026251940e-04  -1.9520010165568508e-01  2.1141487406247084e-01  4.0056425632933157e-02  1.3385163769311592e-02  -1.5804335454645289e-02  2.8087869051672803e-03  -5.5200025353116924e-02  -3.8943849430809328e-02  5.9060492569077000e-02  1.1624263511215402e+00  3.2584032353468800e-01  8.9095064920812661e-01  2.8993022369948374e-01  2.5870101594373612e-02  1.0377901080786195e-01  -1.6393279338171307e-02  1.4408915543572487e-01  4.7344134547163685e-03  1.1411898465358929e-01  -7.4005347928333909e-02  -1.4709914488922129e-03  -9.3006170830687268e-02  -3.2320383930379108e-03  -5.3664930192672301e-02  1.2154741181544401e-02  -4.9294473947893457e-02  -1.2482001750282919e-02  -6.4266984053600717e-03  -1.9980682667438229e-01  4.6325231824788982e-02  2.0383226853139488e-03  -7.2832376362542889e-02  -2.2343131032505192e-01  -1.0621930797915485e-02  -3.7631822429540912e-04  1.2519105245700083e-03  3.9988879775270068e-03  -3.2544461332004643e-02  1.4164695013241311e-03  4.0874361870251747e-03  -1.0661675369182483e-01  2.1982739649746022e-02  -6.0897775174240076e-01  1.3639202692689800e-01  -9.6380593373097106e-03  6.0065698991998678e-02  1.4016631190568196e-01  -9.1590812955412593e-03  5.3996981088083235e-02  -1.0585688036870846e-02  -1.4586106669648940e-02  -1.9579549495732029e-01  -5.7275208223923590e-01  -2.5081404889375286e-01  -6.8264513155335493e-02  -9.0899251817887026e-03  -3.4701157313971265e-01  -1.0668197673706850e-01  -2.9776800398761401e-02  1.8221442440081212e-02  1.3077506065187865e-03  6.9085704338807646e-02  1.6076001741314159e-02  -2.0702830678234474e-03  1.3831630365625477e-01  1.0971323779121944e-01  1.6693856904818630e-01  2.0489040333827352e-01  4.9507282363918964e-02  1.0765225058012085e-01  1.1694197091677087e-01  1.0941915586298168e-01  3.8498038129120046e-02  3.4616133605124541e-02  2.3532190829027305e-01  3.2098796024589954e-02  -9.6284338786940801e-02  3.8053396253653782e-02  3.6570272614553329e-01  -1.2487217999800182e-01  4.0274331308845918e-02  7.5572725713415945e-02  1.4014472090769564e-01  -4.9810136883901224e-01  -1.4705073142176252e-03  8.1399945211636715e-01  8.9017508861127914e-01  1.1025194461483798e-02  -5.3093757646530404e-03  3.8415495258566668e-01  4.6420739814211270e-02  -3.9743514694535687e-02  8.0911634018229761e-05  -4.2389749805674490e-02  -3.9179706885864654e-02  9.9687511180675259e-03  -1.8802686402107222e-03  6.5697090993955654e-02  1.9042184021378486e-02  2.9902172146037759e-01  1.3944644890860496e+00  -1.3368231155302188e+00  2.2322752611935056e-02  2.1986265723634876e-01  -3.1794619870514157e-02  -1.6682540819354330e-02  -9.6121164072455789e-01  -3.4927802542273727e-02  -2.4500174995853621e-02  -2.2230797059702725e-02  -9.1246606359272463e-04  1.5760202668048059e-02  -1.6344692326057293e-02  4.7140231224736359e-02  3.0477582418239155e-02  1.6242225063069785e-02  1.6053460858893781e-02  1.1234625310265822e-01  6.2378193339742018e-02  -6.0940027648729855e-03  7.1688438818464110e-04  6.4583331600913379e-03  7.4896769945642580e-03  2.5553443347940671e-02  7.3794671942086702e-04  -6.7520022598602600e-03  -2.1772217777428327e-02  -2.1310687638481360e-02  -2.4030500677055802e-03  -4.2448499605910933e-02  -5.2508693469636098e-03  1.8799043410766644e-02  4.9680290828662960e-03  7.6783772125736671e-03  1.2552767910343323e-03  9.8538185784200760e-03  -6.9326159383387820e-02  1.9214522020949290e-03  1.0227319337943956e-02  8.5252188590763112e-03  1.0433113885412917e-02  9.4344944343821707e-03  5.3651049414882301e-03  -1.2850091362915286e-03  -3.3874505554988207e-04  4.5697034950323880e-03  2.2691441448806425e-03  4.1784248855903684e-03  -2.1513279378258129e-03  -9.1394784098180375e-04  2.6651279710273503e-02  1.6116379563795989e-02  1.0372404397704229e-02  1.3642629764747212e-03  6.7967727797499109e-03  9.5839836169259022e-04  -3.6291350444655575e-03  9.4102957437905259e-04  1.6633500788522373e-03  3.5258337991142606e-04  1.3910050014463070e-04  6.2521268315413609e-05  7.2767978202064850e-04  4.0342114634246478e-03  7.2689316318349087e-02  2.4925702761737153e-03  -6.4874569119476293e-04  7.7745915420905105e-03  -1.9117175994725066e-03  1.9915623833868516e-02  6.4222678081334132e-03  1.0147941358065113e-01  8.2752816596361384e-02  8.7749092415688013e-02  1.3093836327053883e-02  8.7046051292351406e-03  -5.5695415030986649e-02  5.1051947867389269e-01  -2.1412946658943929e-02  4.3972565094909516e-02  1.1132419005168478e-03  1.4094537444836557e-02  -1.2482366211911161e-01  -2.9554093682263201e-03  4.3963346587651317e-02  3.9710959333860651e-02  8.6700718064355847e-03  -9.7043930303627162e-03  -4.2895275836186603e-02  -4.7591999190190470e-02  1.2162802014524916e-02  2.0128939699382006e-01  8.1412503294174099e-02  1.3702467050094234e-02  9.0173727593937485e-03  -1.4388704090096030e-02  2.3945826448092955e-03  -8.9636414541692279e-03  5.0633042224233316e-02  1.8301788194208884e-02  2.1422845500410131e-03  3.1788236693213699e-03  6.0292893049241902e-03  6.2023934608651798e-03  -1.1240941316975235e-02  3.2889020704219465e-02  9.1442730082260185e-03  -4.3704105613263766e-02  1.1191266241848467e-01  -2.1003502636006123e-02  3.8007434610057886e-02  -1.4816362013218433e-02  1.1116589482560415e+00  -4.9010179306855084e-02  -9.1007638168351418e-02  -4.2440430291883380e-01  2.2295751250088397e-02  6.8811214588128779e-03  -1.0567314715315509e-02  1.4335238385711213e-03  2.5583522433771072e-02  1.6290499928732598e-02  7.8039589868913418e-03  3.4637916606827194e-03  -1.5196083059867338e-01  -5.0709112089325275e-03  5.8751615427819578e-02  -7.9511166753143347e-02  -9.7861890014884073e-02  7.0488372198020885e-03  7.4771667673332737e-03  8.9428762128407308e-02  -3.6139860551218732e-03  7.7249412714905895e-04  2.2649791579942208e-02  3.6546075248770453e-02  -1.1069590791061545e-01  -8.4866746509041080e-02  2.5324832226454792e-04  2.0822051929559000e-02  -1.5169366019391471e-02  5.1727034575161479e-02  3.8019423353755424e-02  7.6156579225924114e-04  -5.1616313373143909e-02  2.6758452979401038e-04  -2.5533586552900964e-03  4.4011975024522809e-02  -1.1997427787531101e-02  -2.6402599242753386e-02  6.0342739006709212e-03  1.0723569721018726e-02  2.6976579982582087e-03  2.0382552549943790e-02  -1.0538026994705794e-01  3.0928480543557929e-02  7.6159727897331464e-04  -4.9396187218337766e-03  9.9324554252467126e-03  6.4991459991112299e-01  1.3626702754575018e-02  3.7768583993067040e-02  2.4683058433082404e-02  -3.8648627380251717e-02  -1.0573355458592477e+00  2.3515001182223522e-02  8.2030633999038045e-03  3.9644363380263642e-02  -8.3224103995165472e-03  -6.6106295105675922e-02  -1.8388847226288895e-03  -2.0447146552256754e-03  6.2914443339383397e-02  4.4245879245746994e-02  -1.6482115128981945e-01  -7.1922526060641187e-03  9.8890671870435820e-02  4.7645218049756438e-02  1.5497467630480155e-01  3.4331602671971002e-02  -8.1585834346618543e-04  7.5926074804426018e-03  4.4309078882416281e-02  1.8313349847295871e-01  -3.4649249781335240e-02  1.8093274642252805e-03  1.1990726749558214e-01  3.2422482967707431e-03  -4.1275528598737649e-02  8.4701756064231391e-03  6.2420518820683092e-03  4.8117408266205560e-04  5.2143115688941255e-03  -1.3528683803396099e-01  -3.4316047012650097e-01  -1.4780759315308112e-01  -2.9902205267541809e-02  -4.0328676040104578e-03  4.9179457988310547e-02  1.5921367866287360e-02  7.3541484152886277e-03  -5.1976413090044915e-04  3.8878070900456342e-03  6.0968264468462874e-02  3.9697394178076703e-02  1.4623956229613225e-02  -1.1486117943071954e-01  -3.5465866330231494e-01  -1.8908700210871314e-02  4.5241944887112057e-03  3.1141058905051373e-02  6.3978299813666154e-03  2.1751691802290196e-02  7.1051633436525763e-02  1.8790791701723689e-01  3.7227519556525181e-02  2.5244718637513971e-03  4.2151293081856625e-02  3.9150207384017699e-02  -5.0965246115667717e-02  2.4280241118005683e-02  -9.6827605917773910e-02  -6.4231109443592671e-02  3.7603747077088412e-02  -9.2994837664656854e-02  4.1830052638778037e-02  -2.0854982075300532e-01  -1.3653207996062844e-02  -1.8035907914552160e-02  -1.6461571057839609e-02  3.6788681321834552e-04  -2.5745941020100666e-04  1.5683809021562554e-02  -2.4991952028931494e-03  2.1476135402102670e-01  2.3885155647145849e-02  -2.4213088230043894e-02  3.9376442726113819e-02  -2.9662941281410463e-02  5.4691095304764202e-02  -1.1181011548104935e-01  6.4338290738355203e-02  -4.2280780917239719e-03  1.6258041419436070e-02  -5.8892799247316045e-04  -3.6758194807649872e-03  1.5514663509461589e-03  5.0241288131171624e-02  1.1183091051985836e-03  -1.3018238460233103e-01  -5.4065235717485227e-02  -3.0709162022952763e-02  3.6297079977636579e-02  9.6192926515634505e-03  1.0552924421793547e-01  -1.6985760786724036e-02  6.4048321435886221e-02  2.6617109812745621e-01  5.4137100149521625e-02  3.6386924223517747e-02  9.3476276769421343e-02  9.0317373080696595e-02  2.3604841645632261e-02  8.6338314044979818e-04  6.4373034692607736e-03  -7.0376999097459689e-02  1.9981351488525305e-02  -1.9461153866045654e-02  -6.8445948862963478e-03  6.8559305873655441e-01  -1.8490934634716044e-02  5.9177680079298123e-01  6.7086208522999388e-02  -1.5278952233392055e-03  2.8612715951464285e-01  6.4980714662829647e-03  5.5587343253496735e-03  4.0402763664788982e-02  -8.1063083782658074e-01  -1.3058592302755989e-01  5.8282655292738201e-03  6.2771230005191560e-04  -4.2971882616725410e-02  4.6378242079255623e-02  -2.1662988498494682e-03  -7.0737483994336575e-03  1.5212957039150495e-02  1.7089689278314918e-02  5.6022238078187181e-02  -8.0523048331787323e-03  -2.3650188381371774e-02  1.8100360107055402e-02  -9.7036272907592702e-03  2.3674285972061001e-02  -1.0966118844477069e-05  -7.5936040014032369e-02  4.7919383180160667e-02  9.1853933163951046e-03  -1.5261065008545960e-02  2.3472027151266305e-02  4.1987413207957798e-02  1.0441190649856702e-01  -3.7209585825125020e-02  1.1973385104875792e-02  6.8583255285114955e-02  1.6573764834215739e-03  -3.6259787811032285e-02  -4.4251286213990489e-03  -1.1641379689142256e-01  1.8421307919038593e-02  2.1153438314518758e-01  2.0398181862849263e-01  5.5201286904926497e-02  1.3517258430367399e-02  3.1359687586917651e-03  1.0022152928322386e-03  2.5540472515418793e-04  -1.0459210861597465e-01  4.0295340881823577e-03  6.2267612108921847e-04  1.2086899189796196e-03  2.4880504011987611e-01  3.8968255569405853e-03  3.4099519473235890e-04  6.0643018970088655e-02  8.8857749824428102e-03  -1.5188456625187530e-03  1.2377868648309580e-01  7.0719933248896763e-03  4.0757991923226294e-04  4.6090310614951072e-03  4.8976642725106057e-01  -4.3044620524878528e-03  4.6108169359237644e-02  -3.0759463439285002e-02  3.4073728354801963e-02  2.4649219628290767e-02  1.5152757028177247e-01  2.7131091828033315e-04  2.1607988659030058e-03  1.1354272889134917e-02  -1.2130363985551354e-01  2.2744559271312054e-02  5.6293967307437806e-04  1.2326201652260727e-03  -3.5187973473022766e-01  4.6614888363481571e-02  1.2184390971816074e-03  -1.7211174037141258e-01  9.0130625436951509e-02  9.7576469523935006e-02  3.1894097690174164e-02  5.4019148705129749e-04  1.5363681326891442e-03  1.5539975607953859e-03  3.7537364373725846e-02  -6.0658631984624657e-02  -2.5198552964554310e-03  1.8272001200700544e-01  2.5637016861420281e-02  1.5236017239321284e-01  1.3214437502524308e-02  9.1438986224898437e-03  7.3637337968385230e-02  5.8718576419260898e-02  2.2776313749482569e-03  2.7081905542064817e-02  -2.1443054358264871e-01  -9.4877039491147314e-04  5.7951332652164652e-03  -2.5002877061550899e-01  -1.0386613701805593e-01  2.6677550070764999e-03  3.2950122190729219e-04  3.3625209451209559e-02  2.3970266878234293e-04  2.9307487101237978e-01  7.1215856695064916e-02  1.0092579018022086e-02  -1.3628385592075265e-03  3.7883476399727653e-02  2.2265253562405579e-03  -6.4977658772105221e-03  6.2951251536499525e-03  -3.9892757819597741e-01  -3.9294301006007823e-02  3.3636955594203788e-03  2.1844146673178238e-03  4.9710778518562010e-03  1.0548842890552478e-02  1.3563496947241904e-02  2.3470033525221271e-02  5.5945132225659368e-04  1.8468559530067374e-03  3.6717669567667144e-02  -2.8303725825889008e-02  1.2462967285917495e-01  -3.2733005711639671e-04  1.0521101112968372e-02  4.5997129669749694e-03  6.5547555737058991e-02  1.0951276957763476e-01  5.1433062412057112e-02  -5.8996953334243037e-03  -5.1592532107615025e-02  -1.2246797180953621e-01  -3.6802796124999079e-02  -1.1952612678956098e-01  8.7851960788472433e-03  9.0139164344238298e-02  -6.5986150655347612e-04  1.8679845391377068e-04  7.4015752940316676e-02  -8.5010689561134702e-03  5.5119745394656160e-02  -4.5653277937165870e-01  2.4190464003087719e-02  9.6198256130828289e-02  -2.5719320540091552e-02  2.5487018014831830e-02  9.6792627251875499e-03  3.5858382752291845e-04  -2.9625237677441688e-02  4.5454434937543045e-02  -1.2844018259069935e-04  2.3117954878572253e-03  1.9677964915541376e-03  1.0589893680840029e-01  -2.5893675527771304e-02  1.7860999507022628e-02  -7.6806285354105719e-03  9.5413544948519710e-02  1.9221786018935941e-03  4.8056748029758692e-02  -2.1340279776754623e-02  3.1729380914206906e-02  2.5790372205179088e-03  1.1262124768102251e+00  -3.1473365492222810e-01  -3.2151636413299892e-04  5.4289050311904334e-03  2.0320286082256660e-02  5.3589328307731172e-03  -1.0561769910620260e-01  -2.9412033752250710e-01  4.3001597228520649e-02  -1.1174471891820160e-01  1.3224337387014637e-01  1.0225369863485535e-02  1.0329014355943503e-01  -1.5026854186784361e-01  -1.1648345505340687e-02  8.1463423013540346e-03  1.3143043148455569e-02  3.7376951081066452e-04  1.1075049329495452e-02  -1.7312122992017148e-03  -1.6145161405273709e-03  1.9731101864090696e-02  2.2392598116376262e-02  -2.4904914753386218e-02  -1.0738890936384618e-01  1.4241113747074100e-02  3.4443979937184184e-03  5.1762671471323489e-03  1.7484056728046607e-02  -4.1297946674279870e-02  -2.4055057703178534e-03  2.5418251955566490e-01  1.0953866879020799e-01  2.6685491480783641e-01  1.8089684655651075e-03  -2.5339774626381895e-01  -4.3726748054673109e-03  5.1579986650053693e-02  4.6925405986109871e-02  1.5030512477520048e+00  1.5903425364047284e-02  2.7388245601081260e-02  6.7182534508157227e-02  -1.3664419005511713e-03  1.1936246247230933e-01  2.4439052019395849e-02  -9.6858907371968228e-02  6.0417334701735603e-03  6.5508966516128198e-03  4.7858078298460005e-03  1.9499471783628534e-02  -1.3258453628838310e-05  -5.3692269152106481e-04  2.2510856344981189e-01  -2.8820908057061695e-02  2.5103579917388326e-02  8.5944319330711963e-03  1.9112455856428043e-02  -1.0753042525468759e-01  -1.9211966164903869e-02  -1.5968343406046623e-02  -5.5348088387691119e-04  8.8694074014158431e-01  1.5879191774797210e-02  6.4258480506802745e-02  -1.1241984917606800e-01  2.3204208193818016e-01  -2.6127747319122235e-03  -1.2116758588885732e-02  7.6424615302205200e-03  1.3621933161793137e-02  7.8215861115667066e-04  -4.1517832620333074e-03  1.9728141593133197e-01  9.1261186441349588e-04  5.3507813052569853e-03  1.1106524212297372e-01  -9.9491019520990126e-02  -4.0733800951100976e-02  -3.0420558549039915e-03  2.1539971112899303e-01  4.1188181558572817e-02  1.8824336263896544e-02  7.4603444883413889e-03  2.6377391987337379e-04  2.5494629743036946e-02  8.6992494123706542e-03  -9.8119743759280311e-03  -6.8091012021845171e-03  6.9530809616057121e-03  3.2683277080260862e-03  1.6214644989198279e-01  -2.7194415598070232e-03  -2.6038753831916353e-02  -5.4526288233150887e-02  2.4084339978263439e-03  -9.8406061214403699e-04  -5.3601397730216223e-02  -1.1653618357963080e-02  1.1402740001508298e-02  -1.1012061163513548e-01  1.7172411184664829e+00  7.5761786861856889e-02  -3.9680229007815170e-02  6.0195210976712619e-02  1.5369837714731172e+00  6.5438533501665230e-02  -8.3367469742965782e-03  -8.4136981718700404e-02  -9.6431578787169372e-03  1.5444209715857679e-02  6.5289598464751686e-03  -9.1086191161857261e-02  -4.0694675142997427e-01  5.7884598465362480e-02  6.3426642922807005e-04  7.5374157509964457e-02  -6.5635424540441169e-04  -5.0778939330029683e-03  3.0152016237871559e-03  7.7807158241154596e-03  -1.0301999026619801e-01  -1.6881506201090288e-03  2.3984701248504943e-02  1.8484399755052255e-02  -1.2535161680406107e-01  -1.9207767201702028e-01  3.3802095387439848e-02  1.6531734009356059e-03  7.5456258987485654e-03  4.1808878835801061e-02  -3.1942640626995804e-03  4.5218267010797520e-03  -3.3433022887263252e-03  1.5443779368840144e-02  -2.0762795746080698e-02  2.1260693203126943e-03  4.5646311606148899e-03  3.3123642049711771e-03  4.5156906764986181e-04  1.3094501146504393e-02  -1.0743869913745480e-01  6.0329996855537214e-02  3.8376385525263675e-03  5.6393261056672840e-02  -2.1281416547784077e-01  5.3672005125171174e-02  -2.1485691484368054e-02  -8.3182963165522456e-03  4.5789465687561065e-02  -4.8257282735422753e-03  2.8688296345717035e-01  1.0500653269889576e-01  8.1963709987606832e-03  -9.1515397492580725e-03  -6.3629395199748433e-03  7.5922431815255986e-03  -4.3275615426635786e-02  -4.0520783737170996e-01  3.1548241115167061e-04  1.9294943250050867e-01  4.2082703745573311e-02  3.0444327278794075e-02  1.1913631440640199e-02  7.2713511629111993e-02  6.8836384144189775e-03  2.6059917441347280e-03  -8.5552040570349805e-02  2.1282630523460792e-02  -1.1127532955524683e-02  5.4035006184069354e-02  -9.4420491556112783e-03  -2.8095022172305778e-02  6.5337309105056394e-03  -1.4362493150055161e-03  -3.1135118096072608e-03  3.6935634312595604e-02  -1.3222363828340272e-02  1.4267288591984112e-02  2.6450194249956892e-02  1.1762607486022503e-01  -5.3323412725451769e-02  5.0540071225565975e-02  3.6415418785473164e-03  3.3937920528503114e-03  3.8650104201655444e-01  -1.1139989153755021e+00  6.3820782614399085e-01  1.9492886191821684e-02  8.5789814539120358e-03  1.0476859814899020e-01  -1.3944588392609199e-02  -1.1341917442440885e-01  5.2470396158791344e-02  6.1933641536463056e-03  1.3511338409173701e-01  -3.3431153901619337e-01  5.4418146080109142e-02  7.5000174875887657e-03  -2.3368772109141123e-02  6.1430909791324777e-04  1.9255118760507187e-02  -1.0467140498850354e-01  -1.4531978676890719e-01  -6.771123709258