<?xml version="1.0"?>
<VTKFile type="UnstructuredGrid"  version="0.1"  >
<UnstructuredGrid>
<Piece  NumberOfPoints="4372" NumberOfCells="8502">
<Points>
<DataArray  type="Float64"  NumberOfComponents="3"  format="ascii">-2 2 0  0 2 0  0 -2 0  -2 -2 0  -1.949999999999792 2 0  -1.899999999999584 2 0  -1.849999999999375 2 0  -1.799999999999167 2 0  -1.749999999999002 2 0  -1.699999999999306 2 0  -1.649999999999653 2 0  -1.6 2 0  -1.550000000000346 2 0  -1.500000000000693 2 0  -1.45000000000104 2 0  -1.400000000001387 2 0  -1.350000000001733 2 0  -1.30000000000208 2 0  -1.250000000002427 2 0  -1.200000000002774 2 0  -1.150000000003121 2 0  -1.100000000003467 2 0  -1.050000000003814 2 0  -1.000000000004117 2 0  -0.9500000000039528 2 0  -0.9000000000037447 2 0  -0.8500000000035368 2 0  -0.8000000000033287 2 0  -0.7500000000031206 2 0  -0.7000000000029127 2 0  -0.6500000000027044 2 0  -0.6000000000024965 2 0  -0.5500000000022884 2 0  -0.5000000000020806 2 0  -0.4500000000018725 2 0  -0.4000000000016644 2 0  -0.3500000000014563 2 0  -0.3000000000012482 2 0  -0.2500000000010403 2 0  -0.200000000000832 2 0  -0.1500000000006243 2 0  -0.100000000000416 2 0  -0.0500000000002081 2 0  0 1.950000000000139 0  0 1.900000000000277 0  0 1.850000000000416 0  0 1.800000000000555 0  0 1.750000000000693 0  0 1.700000000000832 0  0 1.650000000000971 0  0 1.60000000000111 0  0 1.550000000001248 0  0 1.500000000001387 0  0 1.450000000001526 0  0 1.400000000001664 0  0 1.350000000001803 0  0 1.300000000001942 0  0 1.250000000002081 0  0 1.200000000002219 0  0 1.150000000002358 0  0 1.100000000002496 0  0 1.050000000002635 0  0 1.000000000002774 0  0 0.9500000000029125 0  0 0.9000000000030515 0  0 0.8500000000031902 0  0 0.8000000000033287 0  0 0.7500000000034674 0  0 0.7000000000036062 0  0 0.6500000000037449 0  0 0.6000000000038836 0  0 0.5500000000040224 0  0 0.5000000000041611 0  0 0.4500000000042998 0  0 0.4000000000044384 0  0 0.3500000000045771 0  0 0.3000000000047156 0  0 0.2500000000048543 0  0 0.2000000000049929 0  0 0.1500000000051318 0  0 0.1000000000052705 0  0 0.05000000000540905 0  0 5.504485756091526e-12 0  0 -0.04999999999459082 0  0 -0.09999999999472964 0  0 -0.149999999994868 0  0 -0.1999999999950068 0  0 -0.2499999999951457 0  0 -0.299999999995284 0  0 -0.3499999999954229 0  0 -0.3999999999955617 0  0 -0.4499999999957001 0  0 -0.4999999999958389 0  0 -0.5499999999959777 0  0 -0.5999999999961165 0  0 -0.6499999999962549 0  0 -0.6999999999963937 0  0 -0.7499999999965326 0  0 -0.7999999999966709 0  0 -0.8499999999968098 0  0 -0.8999999999969486 0  0 -0.949999999997087 0  0 -0.9999999999972258 0  0 -1.049999999997365 0  0 -1.099999999997503 0  0 -1.149999999997642 0  0 -1.199999999997781 0  0 -1.249999999997919 0  0 -1.299999999998058 0  0 -1.349999999998198 0  0 -1.399999999998336 0  0 -1.449999999998474 0  0 -1.499999999998613 0  0 -1.549999999998751 0  0 -1.599999999998891 0  0 -1.64999999999903 0  0 -1.699999999999168 0  0 -1.749999999999306 0  0 -1.799999999999445 0  0 -1.849999999999584 0  0 -1.899999999999723 0  0 -1.949999999999862 0  -0.04999999999990573 -2 0  -0.0999999999997993 -2 0  -0.1499999999997056 -2 0  -0.1999999999996293 -2 0  -0.2499999999995475 -2 0  -0.2999999999994072 -2 0  -0.3499999999992615 -2 0  -0.3999999999991157 -2 0  -0.44999999999897 -2 0  -0.4999999999988242 -2 0  -0.5499999999986784 -2 0  -0.5999999999985328 -2 0  -0.649999999998387 -2 0  -0.6999999999982413 -2 0  -0.7499999999980955 -2 0  -0.7999999999979498 -2 0  -0.8499999999978042 -2 0  -0.8999999999976585 -2 0  -0.9499999999975127 -2 0  -0.9999999999973885 -2 0  -1.049999999997498 -2 0  -1.09999999999763 -2 0  -1.149999999997762 -2 0  -1.199999999997894 -2 0  -1.249999999998025 -2 0  -1.299999999998157 -2 0  -1.349999999998289 -2 0  -1.39999999999842 -2 0  -1.449999999998552 -2 0  -1.499999999998683 -2 0  -1.549999999998815 -2 0  -1.599999999998947 -2 0  -1.649999999999078 -2 0  -1.69999999999921 -2 0  -1.749999999999342 -2 0  -1.799999999999474 -2 0  -1.849999999999605 -2 0  -1.899999999999737 -2 0  -1.949999999999869 -2 0  -2 -1.950000000000139 0  -2 -1.900000000000277 0  -2 -1.850000000000416 0  -2 -1.800000000000555 0  -2 -1.750000000000693 0  -2 -1.700000000000832 0  -2 -1.650000000000971 0  -2 -1.60000000000111 0  -2 -1.550000000001248 0  -2 -1.500000000001387 0  -2 -1.450000000001526 0  -2 -1.400000000001664 0  -2 -1.350000000001803 0  -2 -1.300000000001942 0  -2 -1.250000000002081 0  -2 -1.200000000002219 0  -2 -1.150000000002358 0  -2 -1.100000000002496 0  -2 -1.050000000002635 0  -2 -1.000000000002774 0  -2 -0.9500000000029125 0  -2 -0.9000000000030515 0  -2 -0.8500000000031902 0  -2 -0.8000000000033287 0  -2 -0.7500000000034674 0  -2 -0.7000000000036062 0  -2 -0.6500000000037449 0  -2 -0.6000000000038836 0  -2 -0.5500000000040224 0  -2 -0.5000000000041611 0  -2 -0.4500000000042998 0  -2 -0.4000000000044384 0  -2 -0.3500000000045771 0  -2 -0.3000000000047156 0  -2 -0.2500000000048543 0  -2 -0.2000000000049929 0  -2 -0.1500000000051318 0  -2 -0.1000000000052705 0  -2 -0.05000000000540905 0  -2 -5.504485756091526e-12 0  -2 0.04999999999459082 0  -2 0.09999999999472964 0  -2 0.149999999994868 0  -2 0.1999999999950068 0  -2 0.2499999999951457 0  -2 0.299999999995284 0  -2 0.3499999999954229 0  -2 0.3999999999955617 0  -2 0.4499999999957001 0  -2 0.4999999999958389 0  -2 0.5499999999959777 0  -2 0.5999999999961165 0  -2 0.6499999999962549 0  -2 0.6999999999963937 0  -2 0.7499999999965326 0  -2 0.7999999999966709 0  -2 0.8499999999968098 0  -2 0.8999999999969486 0  -2 0.949999999997087 0  -2 0.9999999999972258 0  -2 1.049999999997365 0  -2 1.099999999997503 0  -2 1.149999999997642 0  -2 1.199999999997781 0  -2 1.249999999997919 0  -2 1.299999999998058 0  -2 1.349999999998198 0  -2 1.399999999998336 0  -2 1.449999999998474 0  -2 1.499999999998613 0  -2 1.549999999998751 0  -2 1.599999999998891 0  -2 1.64999999999903 0  -2 1.699999999999168 0  -2 1.749999999999306 0  -2 1.799999999999445 0  -2 1.849999999999584 0  -2 1.899999999999723 0  -2 1.949999999999862 0  -0.9991019297010011 -0.3216894116769606 0  -1.001123860021573 0.7747860510049681 0  -1.157001840564423 -1.161067247012082 0  -1.338027560051535 1.335779534439809 0  -0.6597222222209854 1.340277777778947 0  -0.6585505322915344 0.2210104638722434 0  -1.342670381551713 0.2273264508688188 0  -0.6282204758073073 -0.8120080430170664 0  -0.584236517600881 -1.424312893620663 0  -1.444216308265114 -0.6762220291217811 0  -0.5052068177397626 0.8617966625436217 0  -1.495725541732084 0.8726406067560636 0  -0.5012956875285356 -0.2537377131698332 0  -1.505964779037762 -1.506864731248248 0  -1.533439101629034 -0.2141932377592857 0  -0.9980909254944228 -1.563025322244478 0  -1.573871097078973 -1.076090339205781 0  -0.9938363905916023 1.574658399668859 0  -1.034823301857025 -0.7463046737786232 0  -1.613643420611705 1.613643420611667 0  -0.3789826634893113 1.622833641383097 0  -0.9969623469406674 0.06224895986291776 0  -0.9977570821219073 1.152964911765466 0  -0.3827586671415756 0.4981078379584384 0  -1.617241332858342 0.4981078379584687 0  -0.3735162279179589 -1.10055932464888 0  -0.9514697352838486 0.4195344991084976 0  -0.3671724871528862 -0.5890291676826473 0  -0.8024708669961921 -1.130631989953667 0  -0.3498086031259764 1.176326426441 0  -1.654591699695181 1.175475929606857 0  -0.3418462529951587 0.05839036814553086 0  -1.276352049535552 0.5646214960700082 0  -0.3455726757630372 -1.654274000872155 0  -1.662000930981631 0.09800841401402562 0  -0.7326605900058469 -0.5029780286614124 0  -0.6815317218188973 0.6015493889244842 0  -1.294915051768271 1.68349586060536 0  -0.6978609120161386 1.682418596511037 0  -1.69042813419972 -0.4820149800903958 0  -0.7177378365368432 -1.691938564923942 0  -1.295041566734205 -0.3964989221993158 0  -1.257425593209587 -1.693594420665469 0  -1.246383246782414 -0.1148360514526407 0  -0.7362449271051545 -0.05964032805167522 0  -1.707983706106591 -0.8099422821034401 0  -0.7716224277305496 0.9720234774828133 0  -1.275827556233888 1.059370830779667 0  -1.709731219610966 -1.713515019749574 0  -0.283604077223767 -1.378462113197051 0  -1.331628086330126 -0.9256871504417986 0  -1.718803648671523 -1.313287096736098 0  -1.237157326776588 -1.417624750871973 0  -0.2754377852160807 -0.8405670548436512 0  -0.2604914310470714 0.745077019249353 0  -1.729633983752603 0.7365041208839631 0  -0.2591591556650803 -0.3445128723686334 0  -0.2497705497594995 0.2862378673199174 0  -0.2571319926197782 1.401471300128245 0  -1.750457518478978 1.404891698644917 0  -0.8313391195977098 -1.383947161511035 0  -1.24247470005791 0.8083576983762071 0  -1.75762809210058 -0.121394575294928 0  -1.436009639427774 -1.277692839795198 0  -0.9951285024698884 -0.9801850598617781 0  -0.5860531098993602 1.102916873865959 0  -1.107154037528234 1.367740498542844 0  -1.765353655027761 0.3139359895551974 0  -0.239693234576285 0.9675382248711792 0  -1.762311524625569 0.9715314837693784 0  -1.453060458314344 0.01668426334404738 0  -1.118216683883963 0.2510494134873997 0  -1.487314750788142 -1.768895281943666 0  -0.775695807447912 -0.2851187916602083 0  -1.775021992875828 1.773058151300929 0  -0.2244440016626344 1.771853493176412 0  -0.8797519944267721 1.389822301404418 0  -1.220958717521525 -0.6178523500889427 0  -0.59343770640056 -1.180817576357191 0  -0.9262618789157869 -1.776942446977449 0  -0.2205428235968764 -0.1260615883490472 0  -1.10972339161439 1.777127575560661 0  -0.9394997616645768 -0.5365790009321401 0  -0.812081892264416 -0.7153463049796221 0  -1.783917055200667 -1.008716696077253 0  -0.515263853692324 -1.788606832309386 0  -0.8883686379713935 1.780240085569055 0  -1.545545177082075 0.2916466799431231 0  -1.490071498349099 1.777107893879804 0  -0.5133806951054479 1.777756514587614 0  -1.042544744196485 -1.335739934857762 0  -0.8641039527440014 0.2249999999994 0  -1.475046450324973 0.6546028915744984 0  -1.529677928948796 1.412892352790367 0  -0.4613578028330296 1.41527900122371 0  -1.790928681625402 -1.
[...]
<PointData  Vectors="f_1087-0"> 
<DataArray  type="Float64"  Name="f_1087-0"  NumberOfComponents="3" format="ascii">6.7156696826049193e-03 1.6500778631726848e-03 0.0000000000000000e+00  5.2463088492713103e-03 0.0000000000000000e+00 0.0000000000000000e+00  1.5887939642876697e-02 0.0000000000000000e+00 0.0000000000000000e+00  -9.7740924347874555e-02 -1.3545239027904676e-01 0.0000000000000000e+00  2.1495595306895796e-03 1.4888834129206572e-03 0.0000000000000000e+00  8.0570529190907535e-05 1.6775259446019593e-04 0.0000000000000000e+00  3.0294431396514249e-02 3.7120487137944254e-02 0.0000000000000000e+00  2.0621859498882364e-03 -2.0940242670464380e-02 0.0000000000000000e+00  5.9260968188062585e-03 2.2126819720094029e-03 0.0000000000000000e+00  1.2743098959209009e-02 3.4023442048192734e-03 0.0000000000000000e+00  1.8075222907836939e-02 4.5768138891211056e-03 0.0000000000000000e+00  1.4245313037935475e-02 9.0865288035444389e-04 0.0000000000000000e+00  2.9374917837946537e-03 1.7273056970135944e-03 0.0000000000000000e+00  9.3154441495285605e-03 7.6105606167801109e-04 0.0000000000000000e+00  1.5481939740923773e-03 1.8921861210229797e-03 0.0000000000000000e+00  7.9989305556087988e-04 8.8433729884722801e-04 0.0000000000000000e+00  4.9472593215947450e-02 9.4000754890453293e-03 0.0000000000000000e+00  1.9509447012803639e-02 2.2258080686250472e-03 0.0000000000000000e+00  3.1236575886960945e-02 7.0094103480570647e-03 0.0000000000000000e+00  7.4932505607563482e-04 2.4975080111075913e-03 0.0000000000000000e+00  1.6998245082972131e-02 1.4211367342092046e-02 0.0000000000000000e+00  2.6165881413668483e-02 1.5815152468281531e-02 0.0000000000000000e+00  -5.7598295319705985e-02 -3.2348184343119875e-02 0.0000000000000000e+00  -4.3871117075301768e-04 4.7609983269357265e-03 0.0000000000000000e+00  3.6578162141901044e-03 1.7090450636057339e-02 0.0000000000000000e+00  1.3010868838678009e-02 7.9219626209663611e-03 0.0000000000000000e+00  1.1444081274323890e-03 6.2783410505361403e-02 0.0000000000000000e+00  1.4817228453722065e-02 7.8098501795059575e-04 0.0000000000000000e+00  2.9441466558850497e-02 7.0357993580726455e-04 0.0000000000000000e+00  8.1564684168218965e-03 2.3668473117840809e-02 0.0000000000000000e+00  1.0701874815243340e-02 6.7993951781877334e-03 0.0000000000000000e+00  7.7995085194301164e-02 6.4606864767190242e-02 0.0000000000000000e+00  -4.2972781908313870e-03 9.6881596834526351e-02 0.0000000000000000e+00  2.1536843253868596e-02 -9.9375224218922406e-02 0.0000000000000000e+00  2.1631196932412802e-02 -1.1662611199310655e-03 0.0000000000000000e+00  2.6453710913061798e-02 -7.6313439831602409e-02 0.0000000000000000e+00  1.9018584100692282e-02 2.0189467823353568e-02 0.0000000000000000e+00  1.7069632960568744e-02 1.8037921539961310e-02 0.0000000000000000e+00  1.3375308142843476e-02 -8.5788574192097941e-02 0.0000000000000000e+00  3.5735482175020066e-03 -1.1024889751721032e-03 0.0000000000000000e+00  3.8324077186989540e-03 -1.1983271411215997e-02 0.0000000000000000e+00  4.8766175820447498e-03 2.0060613729792308e-02 0.0000000000000000e+00  1.3788966449771567e-02 1.7018399615079783e-04 0.0000000000000000e+00  3.4159081212221193e-02 0.0000000000000000e+00 0.0000000000000000e+00  1.3332608034139537e-01 0.0000000000000000e+00 0.0000000000000000e+00  1.7940022530581017e-02 0.0000000000000000e+00 0.0000000000000000e+00  1.2986830670451465e-02 0.0000000000000000e+00 0.0000000000000000e+00  1.4352186801049908e-03 0.0000000000000000e+00 0.0000000000000000e+00  -6.8363960950739103e-03 0.0000000000000000e+00 0.0000000000000000e+00  2.8964186407099031e-04 0.0000000000000000e+00 0.0000000000000000e+00  2.7687216110669618e-03 0.0000000000000000e+00 0.0000000000000000e+00  4.0080946686280282e-03 0.0000000000000000e+00 0.0000000000000000e+00  1.6883357239068100e-02 0.0000000000000000e+00 0.0000000000000000e+00  8.5443492788810668e-04 0.0000000000000000e+00 0.0000000000000000e+00  2.7772002091707118e-02 0.0000000000000000e+00 0.0000000000000000e+00  1.0953998297679226e-02 0.0000000000000000e+00 0.0000000000000000e+00  1.5079520130644227e-02 0.0000000000000000e+00 0.0000000000000000e+00  4.6255894231441760e-02 0.0000000000000000e+00 0.0000000000000000e+00  4.5416269953613461e-02 0.0000000000000000e+00 0.0000000000000000e+00  7.4056446786390617e-02 0.0000000000000000e+00 0.0000000000000000e+00  1.2906539873838352e-01 0.0000000000000000e+00 0.0000000000000000e+00  1.0299306553773818e-01 0.0000000000000000e+00 0.0000000000000000e+00  1.3109822101227009e-01 0.0000000000000000e+00 0.0000000000000000e+00  9.5057336693551625e-02 0.0000000000000000e+00 0.0000000000000000e+00  7.4502522201273888e-02 0.0000000000000000e+00 0.0000000000000000e+00  8.1104010332335427e-02 0.0000000000000000e+00 0.0000000000000000e+00  9.4319896751501514e-02 0.0000000000000000e+00 0.0000000000000000e+00  5.8533224526553462e-02 0.0000000000000000e+00 0.0000000000000000e+00  1.4699227486879793e-01 0.0000000000000000e+00 0.0000000000000000e+00  1.4573876739820447e-03 0.0000000000000000e+00 0.0000000000000000e+00  3.4022223419736694e-02 0.0000000000000000e+00 0.0000000000000000e+00  8.7750401086636814e-02 0.0000000000000000e+00 0.0000000000000000e+00  -1.7887834945013177e-02 0.0000000000000000e+00 0.0000000000000000e+00  2.0561408172405482e-02 0.0000000000000000e+00 0.0000000000000000e+00  -5.6384069921063179e-02 0.0000000000000000e+00 0.0000000000000000e+00  -4.5227378449971607e-02 0.0000000000000000e+00 0.0000000000000000e+00  -2.4754285801526690e-01 0.0000000000000000e+00 0.0000000000000000e+00  -5.3165830191582789e-02 0.0000000000000000e+00 0.0000000000000000e+00  -1.1427585074886379e-01 0.0000000000000000e+00 0.0000000000000000e+00  -7.9739265450457196e-03 0.0000000000000000e+00 0.0000000000000000e+00  -1.3810053543413071e-02 0.0000000000000000e+00 0.0000000000000000e+00  -3.8762884977078971e-02 0.0000000000000000e+00 0.0000000000000000e+00  -3.9785775468666268e-02 0.0000000000000000e+00 0.0000000000000000e+00  -1.0351541498052504e-02 0.0000000000000000e+00 0.0000000000000000e+00  4.4165151249642154e-04 0.0000000000000000e+00 0.0000000000000000e+00  1.4619339131539198e-02 0.0000000000000000e+00 0.0000000000000000e+00  -2.3482368863185979e-01 0.0000000000000000e+00 0.0000000000000000e+00  -2.3885165217141256e-02 0.0000000000000000e+00 0.0000000000000000e+00  3.8163290685353113e-01 0.0000000000000000e+00 0.0000000000000000e+00  -1.0957906369020685e-02 0.0000000000000000e+00 0.0000000000000000e+00  -8.6942796785559454e-02 0.0000000000000000e+00 0.0000000000000000e+00  -2.9699573776725156e-02 0.0000000000000000e+00 0.0000000000000000e+00  -9.7856835586159263e-02 0.0000000000000000e+00 0.0000000000000000e+00  -4.3190481740366854e-02 0.0000000000000000e+00 0.0000000000000000e+00  -3.9351039630264595e-03 0.0000000000000000e+00 0.0000000000000000e+00  2.5140983519293655e-02 0.0000000000000000e+00 0.0000000000000000e+00  -1.6875290717926490e-02 0.0000000000000000e+00 0.0000000000000000e+00  1.3997770377604047e-03 0.0000000000000000e+00 0.0000000000000000e+00  2.5798036962684658e-02 0.0000000000000000e+00 0.0000000000000000e+00  2.2523300931071875e-02 0.0000000000000000e+00 0.0000000000000000e+00  6.8777773332115363e-02 0.0000000000000000e+00 0.0000000000000000e+00  9.7872084221996156e-02 0.0000000000000000e+00 0.0000000000000000e+00  5.8353274183576467e-03 0.0000000000000000e+00 0.0000000000000000e+00  9.2462753804632203e-02 0.0000000000000000e+00 0.0000000000000000e+00  3.8319393745183183e-01 0.0000000000000000e+00 0.0000000000000000e+00  -2.2606469619314083e-02 0.0000000000000000e+00 0.0000000000000000e+00  -3.3886404410725192e-02 0.0000000000000000e+00 0.0000000000000000e+00  -6.7930118525994468e-02 0.0000000000000000e+00 0.0000000000000000e+00  3.1416531817385726e-02 0.0000000000000000e+00 0.0000000000000000e+00  1.4880924562559130e-02 0.0000000000000000e+00 0.0000000000000000e+00  -1.5830036368984994e-02 0.0000000000000000e+00 0.0000000000000000e+00  -1.0002553253635761e-01 0.0000000000000000e+00 0.0000000000000000e+00  -7.2048750838909228e-02 0.0000000000000000e+00 0.0000000000000000e+00  1.2868492315295539e+00 0.0000000000000000e+00 0.0000000000000000e+00  1.6676634255372857e-02 0.0000000000000000e+00 0.0000000000000000e+00  1.6726027730433304e+00 0.0000000000000000e+00 0.0000000000000000e+00  -8.8295441705992031e-03 0.0000000000000000e+00 0.0000000000000000e+00  -5.7567433613975705e-01 0.0000000000000000e+00 0.0000000000000000e+00  1.6932788430571835e-01 0.0000000000000000e+00 0.0000000000000000e+00  3.6643186269268706e-02 0.0000000000000000e+00 0.0000000000000000e+00  -2.8111497641644095e-01 0.0000000000000000e+00 0.0000000000000000e+00  2.3106861243569354e+00 0.0000000000000000e+00 0.0000000000000000e+00  -2.7438926587158285e-01 4.4032699109621223e-02 0.0000000000000000e+00  1.2489460979542071e-01 1.3859732967248747e-01 0.0000000000000000e+00  -2.3491352674632357e-01 5.5537974409766190e-02 0.0000000000000000e+00  1.0571033070808201e-01 -4.4188599358075420e-01 0.0000000000000000e+00  5.6390713706717846e-02 2.0832011323469779e-01 0.0000000000000000e+00  2.2781575105155780e-01 3.7630932925281316e-02 0.0000000000000000e+00  7.0291277924384021e-01 2.1079383225117332e-01 0.0000000000000000e+00  6.2587025599299873e-01 2.3754688167608592e-01 0.0000000000000000e+00  2.8503726779244853e-01 2.8685206389691359e-01 0.0000000000000000e+00  1.5784289549312494e+00 1.5416084020548493e+00 0.0000000000000000e+00  2.2167692368202305e-02 8.1885967307714691e-01 0.0000000000000000e+00  -7.1698221212029983e-02 -1.1951838502677853e-01 0.0000000000000000e+00  6.0800477564459066e-01 1.4246505846585518e-02 0.0000000000000000e+00  -3.8508359465022887e-02 3.5064470771183759e-01 0.0000000000000000e+00  3.7175265694004651e-02 -4.2549267015480757e-02 0.0000000000000000e+00  -5.9537022219094335e-02 -3.3157424408907524e-02 0.0000000000000000e+00  -5.5985955759860866e-02 3.2023383030015014e-02 0.0000000000000000e+00  -6.1266304840884231e-04 3.9926990957853459e-01 0.0000000000000000e+00  4.7867804137148584e-02 7.5365918677275500e-03 0.0000000000000000e+00  -1.1252537052087486e-01 -1.3918064106177408e-02 0.0000000000000000e+00  -3.6609049435562188e-02 1.8960043704717702e-01 0.0000000000000000e+00  -7.1257294980688612e-02 -7.2461655693351112e-02 0.0000000000000000e+00  2.4837828164032079e-02 5.2118541100100880e-03 0.0000000000000000e+00  1.1645146530021980e-02 9.1206481038113678e-03 0.0000000000000000e+00  -1.2855466503313351e-01 -1.3202864194925273e-01 0.0000000000000000e+00  9.4790624368010813e-03 -6.6469734576459022e-02 0.0000000000000000e+00  -2.2852477949435838e-03 -1.1511097607414343e-01 0.0000000000000000e+00  -3.4244973833623397e-02 -1.5943435073838132e-02 0.0000000000000000e+00  5.3056781963142065e-03 -5.9258651043125075e-02 0.0000000000000000e+00  -5.0190572740414141e-03 -8.2301983644279320e-02 0.0000000000000000e+00  4.8392877290911671e-02 -1.3817479459789214e-01 0.0000000000000000e+00  5.3481994315106459e-04 -1.3404969430785424e-01 0.0000000000000000e+00  -2.5205257285099486e-03 -7.2673144983642413e-02 0.0000000000000000e+00  -1.1051937181587521e-01 -1.2107610818604900e-01 0.0000000000000000e+00  -6.0506781031371935e-02 1.0385393344395444e-03 0.0000000000000000e+00  -5.8370393648659494e-02 -6.6006052717458380e-02 0.0000000000000000e+00  -7.5530119693888953e-02 -6.6649555604821303e-02 0.0000000000000000e+00  -6.0846712594925342e-02 1.5397596818971626e-02 0.0000000000000000e+00  7.3988431296443252e-03 -1.6269376213581060e-01 0.0000000000000000e+00  3.9508130634810262e-02 -9.5223432197218974e-02 0.0000000000000000e+00  5.4274742505808993e-02 -9.2367411088532775e-02 0.0000000000000000e+00  5.4581332228844856e-02 4.9150841062830061e-02 0.0000000000000000e+00  -2.2630017952469283e-01 1.6557230995260498e-02 0.0000000000000000e+00  8.0636934365898999e-03 -1.9518002526087895e-02 0.0000000000000000e+00  -6.7731844513249512e-03 -2.5566399761270901e-02 0.0000000000000000e+00  -5.0468903016970858e-03 -3.7877199561678072e-02 0.0000000000000000e+00  -4.1731161770454051e-02 -4.4585852681160429e-02 0.0000000000000000e+00  -3.7234075054031257e-02 -4.5081511664228746e-02 0.0000000000000000e+00  9.7552139979915024e-03 -2.9933963718094300e-02 0.0000000000000000e+00  -8.3441173814814088e-04 -7.2242822449539015e-02 0.0000000000000000e+00  -9.0839035514257878e-05 1.6439582944033575e-02 0.0000000000000000e+00  2.4706062250494073e-04 -2.5036024858713203e-04 0.0000000000000000e+00  2.0163425906903183e-02 2.4034406899125678e-02 0.0000000000000000e+00  1.4218470089175969e-02 -1.0407569826802467e-02 0.0000000000000000e+00  3.3956713049390977e-03 -7.7090921060518208e-03 0.0000000000000000e+00  1.6505883724967613e-02 -3.8703736959280630e-02 0.0000000000000000e+00  3.2078132907107898e-02 -2.4657917189472474e-02 0.0000000000000000e+00  -2.4026938634147027e-01 3.1974996818364243e-02 0.0000000000000000e+00  -4.0590912334640067e-03 2.8385256656838581e-02 0.0000000000000000e+00  3.4878089605829110e-02 -3.5241553557199393e-02 0.0000000000000000e+00  3.5965898602133506e-02 -4.4127961135767926e-04 0.0000000000000000e+00  7.4102267225913936e-03 -9.0593982124090977e-02 0.0000000000000000e+00  2.4501189977232406e-02 1.3126662548920885e-02 0.0000000000000000e+00  7.0565308374043817e-02 8.5498860076181731e-03 0.0000000000000000e+00  8.3907222304102816e-02 7.8370135660083412e-02 0.0000000000000000e+00  -1.0337860698229509e-01 -1.1038580843522786e-01 0.0000000000000000e+00  -1.0815964858601279e-01 2.0460453919577679e-01 0.0000000000000000e+00  5.5948181749912590e-03 -4.2929472820439150e-02 0.0000000000000000e+00  5.5507309987676015e-02 -7.1702738433591276e-02 0.0000000000000000e+00  -2.6325801584886718e-02 -4.7374745930539156e-02 0.0000000000000000e+00  2.0336227090413039e-01 -3.7915250302419434e-02 0.0000000000000000e+00  3.8191662286486580e-04 2.7848285586889301e-02 0.0000000000000000e+00  1.9063467689958905e-01 1.9320550499884470e-01 0.0000000000000000e+00  -5.3502283824767365e-04 9.1868992011043732e-02 0.0000000000000000e+00  -3.7650151210463008e-04 8.1684007643642184e-02 0.0000000000000000e+00  6.1005528075696952e-02 -1.8122624891460659e-03 0.0000000000000000e+00  3.3191591939439671e-02 4.9995280675414602e-02 0.0000000000000000e+00  9.3050611341645842e-02 8.2043495721332113e-02 0.0000000000000000e+00  5.7546234081400839e-02 1.4603749178989314e-01 0.0000000000000000e+00  1.1415710699699361e-01 1.2921407136850577e-01 0.0000000000000000e+00  1.0951616115779478e-01 1.4686205967773028e-01 0.0000000000000000e+00  9.4408850686175605e-02 5.2006310032929756e-02 0.0000000000000000e+00  -3.2168926706897596e-03 3.1487851966288602e-03 0.0000000000000000e+00  6.4169028560291663e-02 -2.2092567840712985e-03 0.0000000000000000e+00  -4.7229806061137091e-04 7.5374716499151062e-02 0.0000000000000000e+00  8.6452811506218280e-02 8.0056640647835256e-02 0.0000000000000000e+00  2.9928673436259001e-02 2.9582376047164245e-02 0.0000000000000000e+00  1.9019710263470727e-02 1.1248797152707404e-01 0.0000000000000000e+00  1.4103200241335177e-02 1.2407919300578582e-01 0.0000000000000000e+00  5.5169311652862721e-02 1.9413821980142014e-02 0.0000000000000000e+00  7.7631023090844898e-03 8.0834302584543660e-02 0.0000000000000000e+00  7.4477425705896216e-02 6.1116036542249817e-03 0.0000000000000000e+00  2.1504099555975931e-02 3.5562634343046295e-02 0.0000000000000000e+00  4.2192397247261877e-02 3.8476968405821398e-02 0.0000000000000000e+00  2.5586783563779782e-02 4.6927722858820457e-02 0.0000000000000000e+00  2.7581801345098107e-03 -1.8946356909731170e-03 0.0000000000000000e+00  -6.5165490168698648e-03 -2.5202032922368128e-03 0.0000000000000000e+00  5.6524162800195808e-02 3.1662402613071149e-02 0.0000000000000000e+00  3.3957185182849903e-02 -1.9886809157155642e-03 0.0000000000000000e+00  7.6782474917036381e-02 1.6662589531605387e-03 0.0000000000000000e+00  1.1397874805408881e-03 -1.1522044600076504e-03 0.0000000000000000e+00  4.0596095250884654e-03 -2.6736708650620849e-03 0.0000000000000000e+00  4.2740229455752333e-03 1.1683661646237733e-02 0.0000000000000000e+00  -3.2717261204821407e-03 8.1164268135734657e-02 0.0000000000000000e+00  -1.3875611898583631e-02 -1.1621082472941371e-02 0.0000000000000000e+00  1.9876588957150290e-02 2.9112633089386580e-02 0.0000000000000000e+00  1.6549180342152088e-02 5.3920468420956254e-04 0.0000000000000000e+00  -3.9050231737882177e-02 -4.7040043831821114e-03 0.0000000000000000e+00  1.4935212901269680e-02 3.1077827401107368e-02 0.0000000000000000e+00  2.5771761069944516e-02 1.9729702478771323e-02 0.0000000000000000e+00  5.9468811328978266e-03 1.5944452733760198e-03 0.0000000000000000e+00  1.1867483950711737e-04 6.9144081549719167e-04 0.0000000000000000e+00  1.6038803748241577e-02 8.3115234772313702e-03 0.0000000000000000e+00  1.6207207135989776e-02 8.5387697584246337e-03 0.0000000000000000e+00  4.4341423359822295e-04 4.4460578141660920e-04 0.0000000000000000e+00  1.1487482854248745e-04 1.1409376489341352e-03 0.0000000000000000e+00  5.8379948211946617e-04 1.1494908223067355e-03 0.0000000000000000e+00  5.6025933732589909e-03 -1.3213045213901188e-02 0.0000000000000000e+00  -1.9362991702113719e-01 -1.7727031317619376e-02 0.0000000000000000e+00  -9.1523493927467975e-05 2.8334823200723249e-02 0.0000000000000000e+00  -1.4643906571430743e-01 1.2965032181686382e-03 0.0000000000000000e+00  4.4861276988673482e-02 2.3084235275567491e-02 0.0000000000000000e+00  1.9272708403363092e-02 9.6821261504269687e-02 0.0000000000000000e+00  -4.8694231292761583e-02 -5.7108118906544145e-02 0.0000000000000000e+00  -1.0506336526817407e-03 9.2195764807152081e-02 0.0000000000000000e+00  -4.8738449476366838e-02 -1.4120356723832075e-01 0.0000000000000000e+00  -1.1248047622338346e-02 6.4148220623433463e-02 0.0000000000000000e+00  -1.7115771512504477e-01 3.1400985337338358e-02 0.0000000000000000e+00  -1.3856999925613369e-02 1.3988521800114545e-01 0.0000000000000000e+00  1.9844712310395859e-02 2.0863456496400430e-02 0.0000000000000000e+00  -4.5431865850809175e-02 -6.7356281485704377e-03 0.0000000000000000e+00  -2.5072623274181798e-02 -7.1129314426580117e-02 0.0000000000000000e+00  3.4902701495825902e-02 2.8957151620124289e-02 0.0000000000000000e+00  1.1578804595807864e-01 1.1590087860430778e-01 0.0000000000000000e+00  -6.4334733615567602e-02 -7.8158948357071892e-02 0.0000000000000000e+00  4.8477137458787491e-02 3.0012417464678282e-02 0.0000000000000000e+00  -1.3070320440708805e-01 -9.3505040838016626e-02 0.0000000000000000e+00  -3.8211592042489981e-03 -3.8475856711704033e-03 0.0000000000000000e+00  1.5968130185975266e-03 2.0386399679369493e-01 0.0000000000000000e+00  4.1413722990129478e-02 4.2221825766520941e-02 0.0000000000000000e+00  2.4689322404207310e-02 4.4864175517065279e-02 0.0000000000000000e+00  -1.7760107779949255e-02 1.3339563110970809e-01 0.0000000000000000e+00  1.1250974868518410e-01 2.2554337759432089e-01 0.0000000000000000e+00  9.9081961965259577e-02 5.7173268837946448e-02 0.0000000000000000e+00  2.6224730200003019e-02 4.4545526531004645e-02 0.0000000000000000e+00  -1.0331578385156617e-01 8.3441648040883630e-03 0.0000000000000000e+00  9.8774070182405908e-03 1.1375491617794026e-02 0.0000000000000000e+00  9.3734769920413630e-02 1.2667474010807597e-01 0.0000000000000000e+00  5.6946197961024694e-02 1.2946531025021034e-04 0.0000000000000000e+00  -5.9508849926015244e-04 -2.3747392309109833e-01 0.0000000000000000e+00  3.6187380554000628e-02 1.3102544944497146e-01 0.0000000000000000e+00  2.9408198777633165e-01 1.4972243156782477e+00 0.0000000000000000e+00  6.4123493479583099e-02 1.4592108534565798e-01 0.0000000000000000e+00  -1.0607149401052297e-01 -5.4191577710914006e-02 0.0000000000000000e+00  8.4829717174609284e-02 3.8341814521958284e-03 0.0000000000000000e+00  5.5237773187560443e-02 1.5401615581221422e-02 0.0000000000000000e+00  2.4145108961781132e-02 7.2161913004003458e-02 0.0000000000000000e+00  -5.7927077432374310e-02 -6.2447123017518327e-02 0.0000000000000000e+00  5.5986604729874691e-02 9.9987285721499772e-02 0.0000000000000000e+00  -4.2569468523913467e-02 -4.4748901321701132e-02 0.