<?xml version="1.0"?>
<VTKFile type="UnstructuredGrid"  version="0.1"  >
<UnstructuredGrid>
<Piece  NumberOfPoints="4372" NumberOfCells="8502">
<Points>
<DataArray  type="Float64"  NumberOfComponents="3"  format="ascii">-2 2 0  0 2 0  0 -2 0  -2 -2 0  -1.949999999999792 2 0  -1.899999999999584 2 0  -1.849999999999375 2 0  -1.799999999999167 2 0  -1.749999999999002 2 0  -1.699999999999306 2 0  -1.649999999999653 2 0  -1.6 2 0  -1.550000000000346 2 0  -1.500000000000693 2 0  -1.45000000000104 2 0  -1.400000000001387 2 0  -1.350000000001733 2 0  -1.30000000000208 2 0  -1.250000000002427 2 0  -1.200000000002774 2 0  -1.150000000003121 2 0  -1.100000000003467 2 0  -1.050000000003814 2 0  -1.000000000004117 2 0  -0.9500000000039528 2 0  -0.9000000000037447 2 0  -0.8500000000035368 2 0  -0.8000000000033287 2 0  -0.7500000000031206 2 0  -0.7000000000029127 2 0  -0.6500000000027044 2 0  -0.6000000000024965 2 0  -0.5500000000022884 2 0  -0.5000000000020806 2 0  -0.4500000000018725 2 0  -0.4000000000016644 2 0  -0.3500000000014563 2 0  -0.3000000000012482 2 0  -0.2500000000010403 2 0  -0.200000000000832 2 0  -0.1500000000006243 2 0  -0.100000000000416 2 0  -0.0500000000002081 2 0  0 1.950000000000139 0  0 1.900000000000277 0  0 1.850000000000416 0  0 1.800000000000555 0  0 1.750000000000693 0  0 1.700000000000832 0  0 1.650000000000971 0  0 1.60000000000111 0  0 1.550000000001248 0  0 1.500000000001387 0  0 1.450000000001526 0  0 1.400000000001664 0  0 1.350000000001803 0  0 1.300000000001942 0  0 1.250000000002081 0  0 1.200000000002219 0  0 1.150000000002358 0  0 1.100000000002496 0  0 1.050000000002635 0  0 1.000000000002774 0  0 0.9500000000029125 0  0 0.9000000000030515 0  0 0.8500000000031902 0  0 0.8000000000033287 0  0 0.7500000000034674 0  0 0.7000000000036062 0  0 0.6500000000037449 0  0 0.6000000000038836 0  0 0.5500000000040224 0  0 0.5000000000041611 0  0 0.4500000000042998 0  0 0.4000000000044384 0  0 0.3500000000045771 0  0 0.3000000000047156 0  0 0.2500000000048543 0  0 0.2000000000049929 0  0 0.1500000000051318 0  0 0.1000000000052705 0  0 0.05000000000540905 0  0 5.504485756091526e-12 0  0 -0.04999999999459082 0  0 -0.09999999999472964 0  0 -0.149999999994868 0  0 -0.1999999999950068 0  0 -0.2499999999951457 0  0 -0.299999999995284 0  0 -0.3499999999954229 0  0 -0.3999999999955617 0  0 -0.4499999999957001 0  0 -0.4999999999958389 0  0 -0.5499999999959777 0  0 -0.5999999999961165 0  0 -0.6499999999962549 0  0 -0.6999999999963937 0  0 -0.7499999999965326 0  0 -0.7999999999966709 0  0 -0.8499999999968098 0  0 -0.8999999999969486 0  0 -0.949999999997087 0  0 -0.9999999999972258 0  0 -1.049999999997365 0  0 -1.099999999997503 0  0 -1.149999999997642 0  0 -1.199999999997781 0  0 -1.249999999997919 0  0 -1.299999999998058 0  0 -1.349999999998198 0  0 -1.399999999998336 0  0 -1.449999999998474 0  0 -1.499999999998613 0  0 -1.549999999998751 0  0 -1.599999999998891 0  0 -1.64999999999903 0  0 -1.699999999999168 0  0 -1.749999999999306 0  0 -1.799999999999445 0  0 -1.849999999999584 0  0 -1.899999999999723 0  0 -1.949999999999862 0  -0.04999999999990573 -2 0  -0.0999999999997993 -2 0  -0.1499999999997056 -2 0  -0.1999999999996293 -2 0  -0.2499999999995475 -2 0  -0.2999999999994072 -2 0  -0.3499999999992615 -2 0  -0.3999999999991157 -2 0  -0.44999999999897 -2 0  -0.4999999999988242 -2 0  -0.5499999999986784 -2 0  -0.5999999999985328 -2 0  -0.649999999998387 -2 0  -0.6999999999982413 -2 0  -0.7499999999980955 -2 0  -0.7999999999979498 -2 0  -0.8499999999978042 -2 0  -0.8999999999976585 -2 0  -0.9499999999975127 -2 0  -0.9999999999973885 -2 0  -1.049999999997498 -2 0  -1.09999999999763 -2 0  -1.149999999997762 -2 0  -1.199999999997894 -2 0  -1.249999999998025 -2 0  -1.299999999998157 -2 0  -1.349999999998289 -2 0  -1.39999999999842 -2 0  -1.449999999998552 -2 0  -1.499999999998683 -2 0  -1.549999999998815 -2 0  -1.599999999998947 -2 0  -1.649999999999078 -2 0  -1.69999999999921 -2 0  -1.749999999999342 -2 0  -1.799999999999474 -2 0  -1.849999999999605 -2 0  -1.899999999999737 -2 0  -1.949999999999869 -2 0  -2 -1.950000000000139 0  -2 -1.900000000000277 0  -2 -1.850000000000416 0  -2 -1.800000000000555 0  -2 -1.750000000000693 0  -2 -1.700000000000832 0  -2 -1.650000000000971 0  -2 -1.60000000000111 0  -2 -1.550000000001248 0  -2 -1.500000000001387 0  -2 -1.450000000001526 0  -2 -1.400000000001664 0  -2 -1.350000000001803 0  -2 -1.300000000001942 0  -2 -1.250000000002081 0  -2 -1.200000000002219 0  -2 -1.150000000002358 0  -2 -1.100000000002496 0  -2 -1.050000000002635 0  -2 -1.000000000002774 0  -2 -0.9500000000029125 0  -2 -0.9000000000030515 0  -2 -0.8500000000031902 0  -2 -0.8000000000033287 0  -2 -0.7500000000034674 0  -2 -0.7000000000036062 0  -2 -0.6500000000037449 0  -2 -0.6000000000038836 0  -2 -0.5500000000040224 0  -2 -0.5000000000041611 0  -2 -0.4500000000042998 0  -2 -0.4000000000044384 0  -2 -0.3500000000045771 0  -2 -0.3000000000047156 0  -2 -0.2500000000048543 0  -2 -0.2000000000049929 0  -2 -0.1500000000051318 0  -2 -0.1000000000052705 0  -2 -0.05000000000540905 0  -2 -5.504485756091526e-12 0  -2 0.04999999999459082 0  -2 0.09999999999472964 0  -2 0.149999999994868 0  -2 0.1999999999950068 0  -2 0.2499999999951457 0  -2 0.299999999995284 0  -2 0.3499999999954229 0  -2 0.3999999999955617 0  -2 0.4499999999957001 0  -2 0.4999999999958389 0  -2 0.5499999999959777 0  -2 0.5999999999961165 0  -2 0.6499999999962549 0  -2 0.6999999999963937 0  -2 0.7499999999965326 0  -2 0.7999999999966709 0  -2 0.8499999999968098 0  -2 0.8999999999969486 0  -2 0.949999999997087 0  -2 0.9999999999972258 0  -2 1.049999999997365 0  -2 1.099999999997503 0  -2 1.149999999997642 0  -2 1.199999999997781 0  -2 1.249999999997919 0  -2 1.299999999998058 0  -2 1.349999999998198 0  -2 1.399999999998336 0  -2 1.449999999998474 0  -2 1.499999999998613 0  -2 1.549999999998751 0  -2 1.599999999998891 0  -2 1.64999999999903 0  -2 1.699999999999168 0  -2 1.749999999999306 0  -2 1.799999999999445 0  -2 1.849999999999584 0  -2 1.899999999999723 0  -2 1.949999999999862 0  -0.9991019297010011 -0.3216894116769606 0  -1.001123860021573 0.7747860510049681 0  -1.157001840564423 -1.161067247012082 0  -1.338027560051535 1.335779534439809 0  -0.6597222222209854 1.340277777778947 0  -0.6585505322915344 0.2210104638722434 0  -1.342670381551713 0.2273264508688188 0  -0.6282204758073073 -0.8120080430170664 0  -0.584236517600881 -1.424312893620663 0  -1.444216308265114 -0.6762220291217811 0  -0.5052068177397626 0.8617966625436217 0  -1.495725541732084 0.8726406067560636 0  -0.5012956875285356 -0.2537377131698332 0  -1.505964779037762 -1.506864731248248 0  -1.533439101629034 -0.2141932377592857 0  -0.9980909254944228 -1.563025322244478 0  -1.573871097078973 -1.076090339205781 0  -0.9938363905916023 1.574658399668859 0  -1.034823301857025 -0.7463046737786232 0  -1.613643420611705 1.613643420611667 0  -0.3789826634893113 1.622833641383097 0  -0.9969623469406674 0.06224895986291776 0  -0.9977570821219073 1.152964911765466 0  -0.3827586671415756 0.4981078379584384 0  -1.617241332858342 0.4981078379584687 0  -0.3735162279179589 -1.10055932464888 0  -0.9514697352838486 0.4195344991084976 0  -0.3671724871528862 -0.5890291676826473 0  -0.8024708669961921 -1.130631989953667 0  -0.3498086031259764 1.176326426441 0  -1.654591699695181 1.175475929606857 0  -0.3418462529951587 0.05839036814553086 0  -1.276352049535552 0.5646214960700082 0  -0.3455726757630372 -1.654274000872155 0  -1.662000930981631 0.09800841401402562 0  -0.7326605900058469 -0.5029780286614124 0  -0.6815317218188973 0.6015493889244842 0  -1.294915051768271 1.68349586060536 0  -0.6978609120161386 1.682418596511037 0  -1.69042813419972 -0.4820149800903958 0  -0.7177378365368432 -1.691938564923942 0  -1.295041566734205 -0.3964989221993158 0  -1.257425593209587 -1.693594420665469 0  -1.246383246782414 -0.1148360514526407 0  -0.7362449271051545 -0.05964032805167522 0  -1.707983706106591 -0.8099422821034401 0  -0.7716224277305496 0.9720234774828133 0  -1.275827556233888 1.059370830779667 0  -1.709731219610966 -1.713515019749574 0  -0.283604077223767 -1.378462113197051 0  -1.331628086330126 -0.9256871504417986 0  -1.718803648671523 -1.313287096736098 0  -1.237157326776588 -1.417624750871973 0  -0.2754377852160807 -0.8405670548436512 0  -0.2604914310470714 0.745077019249353 0  -1.729633983752603 0.7365041208839631 0  -0.2591591556650803 -0.3445128723686334 0  -0.2497705497594995 0.2862378673199174 0  -0.2571319926197782 1.401471300128245 0  -1.750457518478978 1.404891698644917 0  -0.8313391195977098 -1.383947161511035 0  -1.24247470005791 0.8083576983762071 0  -1.75762809210058 -0.121394575294928 0  -1.436009639427774 -1.277692839795198 0  -0.9951285024698884 -0.9801850598617781 0  -0.5860531098993602 1.102916873865959 0  -1.107154037528234 1.367740498542844 0  -1.765353655027761 0.3139359895551974 0  -0.239693234576285 0.9675382248711792 0  -1.762311524625569 0.9715314837693784 0  -1.453060458314344 0.01668426334404738 0  -1.118216683883963 0.2510494134873997 0  -1.487314750788142 -1.768895281943666 0  -0.775695807447912 -0.2851187916602083 0  -1.775021992875828 1.773058151300929 0  -0.2244440016626344 1.771853493176412 0  -0.8797519944267721 1.389822301404418 0  -1.220958717521525 -0.6178523500889427 0  -0.59343770640056 -1.180817576357191 0  -0.9262618789157869 -1.776942446977449 0  -0.2205428235968764 -0.1260615883490472 0  -1.10972339161439 1.777127575560661 0  -0.9394997616645768 -0.5365790009321401 0  -0.812081892264416 -0.7153463049796221 0  -1.783917055200667 -1.008716696077253 0  -0.515263853692324 -1.788606832309386 0  -0.8883686379713935 1.780240085569055 0  -1.545545177082075 0.2916466799431231 0  -1.490071498349099 1.777107893879804 0  -0.5133806951054479 1.777756514587614 0  -1.042544744196485 -1.335739934857762 0  -0.8641039527440014 0.2249999999994 0  -1.475046450324973 0.6546028915744984 0  -1.529677928948796 1.412892352790367 0  -0.4613578028330296 1.41527900122371 0  -1.790928681625402 -1.
[...]
<PointData  Vectors="f_1087-0"> 
<DataArray  type="Float64"  Name="f_1087-0"  NumberOfComponents="3" format="ascii">1.5463918282308505e-04 2.7724765043985768e-04 0.0000000000000000e+00  1.4985101513224665e-03 0.0000000000000000e+00 0.0000000000000000e+00  -3.9147969897882131e-03 0.0000000000000000e+00 0.0000000000000000e+00  -6.9891641190622256e-01 -7.9323452279204520e-01 0.0000000000000000e+00  9.1183792074880400e-05 1.0936501089327494e-03 0.0000000000000000e+00  1.1721966246315340e-04 1.9766594616288927e-04 0.0000000000000000e+00  5.6824205539150385e-03 7.0488527158262121e-03 0.0000000000000000e+00  2.4670754355214154e-04 -2.5144262774234151e-03 0.0000000000000000e+00  7.6285857631433365e-04 5.1873590055062191e-04 0.0000000000000000e+00  2.1471375360927443e-03 9.0941987953033730e-04 0.0000000000000000e+00  3.9198666853262967e-03 1.6395730185436350e-04 0.0000000000000000e+00  3.0590514261283801e-03 2.0610286199831583e-04 0.0000000000000000e+00  6.2472648412850197e-04 1.0370333305895197e-04 0.0000000000000000e+00  2.3967382917069813e-03 2.3813805553192063e-04 0.0000000000000000e+00  9.1839753096964200e-04 8.1958285918468251e-04 0.0000000000000000e+00  4.6856103852363869e-04 3.9750872802065898e-04 0.0000000000000000e+00  9.5001718238245207e-03 -3.3310882382750857e-03 0.0000000000000000e+00  4.3950849529652662e-03 5.4578041071044660e-04 0.0000000000000000e+00  6.8350880287894478e-03 1.5770974721117390e-03 0.0000000000000000e+00  3.6630997609644466e-04 1.2336402212285331e-03 0.0000000000000000e+00  -3.8102733907038715e-03 -5.8284350390439693e-04 0.0000000000000000e+00  4.3916024201361079e-03 -1.1014324647510435e-03 0.0000000000000000e+00  -6.0641183571060412e-03 -3.6370406648346086e-03 0.0000000000000000e+00  5.9412207990949296e-04 6.2240511244368644e-04 0.0000000000000000e+00  1.4622638280038334e-03 4.9641939341403506e-03 0.0000000000000000e+00  3.8538491917162413e-04 2.1037931535883496e-03 0.0000000000000000e+00  3.6694471604891993e-04 1.3720568821275189e-02 0.0000000000000000e+00  3.1764815656694437e-03 1.5984052521174168e-04 0.0000000000000000e+00  7.7013761078705244e-03 3.6816953609252682e-04 0.0000000000000000e+00  2.3153257054007886e-03 6.1783908935621815e-03 0.0000000000000000e+00  3.7936028333984510e-04 1.9512096613922138e-03 0.0000000000000000e+00  1.5254310675542332e-02 1.2438666090386536e-02 0.0000000000000000e+00  -1.2175397583948255e-02 1.9266497767616575e-02 0.0000000000000000e+00  -1.9594966775783834e-03 -8.9924212185882226e-03 0.0000000000000000e+00  -1.7600411849375938e-03 4.0996597530803560e-04 0.0000000000000000e+00  4.4348311854378389e-03 -7.6885400357360103e-03 0.0000000000000000e+00  -1.2450051389815923e-03 -1.2619969348058827e-03 0.0000000000000000e+00  2.6456835227710905e-03 -5.7841915564345802e-04 0.0000000000000000e+00  2.3105264823557337e-03 -7.9742019930836849e-03 0.0000000000000000e+00  8.1186958271916004e-04 4.8797328619187299e-04 0.0000000000000000e+00  1.9838491780149754e-03 -1.2993749222649127e-03 0.0000000000000000e+00  2.5385249992588531e-03 5.8901053363955699e-03 0.0000000000000000e+00  3.7809023491591951e-03 2.7986961606574407e-04 0.0000000000000000e+00  2.6919128159213681e-03 0.0000000000000000e+00 0.0000000000000000e+00  2.5899108855471691e-02 0.0000000000000000e+00 0.0000000000000000e+00  -4.3623405198747571e-04 0.0000000000000000e+00 0.0000000000000000e+00  3.0844801996729237e-04 0.0000000000000000e+00 0.0000000000000000e+00  -6.4502352384496154e-04 0.0000000000000000e+00 0.0000000000000000e+00  -1.6206043670284045e-03 0.0000000000000000e+00 0.0000000000000000e+00  1.7496943934443288e-06 0.0000000000000000e+00 0.0000000000000000e+00  1.0224898391161487e-03 0.0000000000000000e+00 0.0000000000000000e+00  1.6433326983288682e-03 0.0000000000000000e+00 0.0000000000000000e+00  4.7065770928996029e-03 0.0000000000000000e+00 0.0000000000000000e+00  3.5576920584055795e-04 0.0000000000000000e+00 0.0000000000000000e+00  -1.1196131092397772e-02 0.0000000000000000e+00 0.0000000000000000e+00  -3.2904572621851929e-03 0.0000000000000000e+00 0.0000000000000000e+00  2.1117350915863253e-03 0.0000000000000000e+00 0.0000000000000000e+00  1.2765556886164198e-02 0.0000000000000000e+00 0.0000000000000000e+00  3.4803976087810704e-03 0.0000000000000000e+00 0.0000000000000000e+00  2.0224220510193729e-02 0.0000000000000000e+00 0.0000000000000000e+00  3.4302496671793845e-02 0.0000000000000000e+00 0.0000000000000000e+00  2.8894926100512759e-02 0.0000000000000000e+00 0.0000000000000000e+00  1.2277649397920105e-01 0.0000000000000000e+00 0.0000000000000000e+00  -4.5396370097060216e-03 0.0000000000000000e+00 0.0000000000000000e+00  7.7370984434821863e-03 0.0000000000000000e+00 0.0000000000000000e+00  2.9074660107169494e-02 0.0000000000000000e+00 0.0000000000000000e+00  -7.2998228855724878e-03 0.0000000000000000e+00 0.0000000000000000e+00  -9.9234787887090142e-03 0.0000000000000000e+00 0.0000000000000000e+00  6.6963197240304070e-02 0.0000000000000000e+00 0.0000000000000000e+00  6.7085395796621342e-04 0.0000000000000000e+00 0.0000000000000000e+00  1.7805610386928239e-02 0.0000000000000000e+00 0.0000000000000000e+00  3.6796734080854390e-02 0.0000000000000000e+00 0.0000000000000000e+00  -3.3931437316671448e-02 0.0000000000000000e+00 0.0000000000000000e+00  -4.3501942449361203e-02 0.0000000000000000e+00 0.0000000000000000e+00  -2.5963063388851331e-02 0.0000000000000000e+00 0.0000000000000000e+00  -2.3172034541077885e-02 0.0000000000000000e+00 0.0000000000000000e+00  4.8614581766038417e-02 0.0000000000000000e+00 0.0000000000000000e+00  7.8090847049929385e-02 0.0000000000000000e+00 0.0000000000000000e+00  5.3459815681597751e-02 0.0000000000000000e+00 0.0000000000000000e+00  1.7373308591968173e-02 0.0000000000000000e+00 0.0000000000000000e+00  -1.7671035606164998e-02 0.0000000000000000e+00 0.0000000000000000e+00  -4.2998456511501110e-02 0.0000000000000000e+00 0.0000000000000000e+00  -5.7013590138285386e-03 0.0000000000000000e+00 0.0000000000000000e+00  -4.3584852442909827e-02 0.0000000000000000e+00 0.0000000000000000e+00  2.9499097221511056e-01 0.0000000000000000e+00 0.0000000000000000e+00  1.2325209953915941e+00 0.0000000000000000e+00 0.0000000000000000e+00  4.9152862546115464e-02 0.0000000000000000e+00 0.0000000000000000e+00  -7.4392787510186978e-02 0.0000000000000000e+00 0.0000000000000000e+00  8.3892095345766871e-01 0.0000000000000000e+00 0.0000000000000000e+00  1.2740112129624670e-02 0.0000000000000000e+00 0.0000000000000000e+00  1.5999412593365558e-01 0.0000000000000000e+00 0.0000000000000000e+00  3.7174375555379474e-02 0.0000000000000000e+00 0.0000000000000000e+00  1.5511974982950913e-01 0.0000000000000000e+00 0.0000000000000000e+00  -8.9108757480705403e-02 0.0000000000000000e+00 0.0000000000000000e+00  1.2597692526368101e-01 0.0000000000000000e+00 0.0000000000000000e+00  -7.9208870649034230e-02 0.0000000000000000e+00 0.0000000000000000e+00  -2.4548395877546682e-03 0.0000000000000000e+00 0.0000000000000000e+00  2.1862774259073584e-03 0.0000000000000000e+00 0.0000000000000000e+00  -6.0956303748502250e-03 0.0000000000000000e+00 0.0000000000000000e+00  -1.5019068367871650e-02 0.0000000000000000e+00 0.0000000000000000e+00  -3.5470650204258339e-02 0.0000000000000000e+00 0.0000000000000000e+00  -4.8477972654914048e-02 0.0000000000000000e+00 0.0000000000000000e+00  5.3090627112633085e-03 0.0000000000000000e+00 0.0000000000000000e+00  -3.9176709741180017e-02 0.0000000000000000e+00 0.0000000000000000e+00  -1.5696347286369000e-01 0.0000000000000000e+00 0.0000000000000000e+00  2.5606235412106555e-02 0.0000000000000000e+00 0.0000000000000000e+00  2.2071874314279864e-02 0.0000000000000000e+00 0.0000000000000000e+00  2.6607793065817564e-02 0.0000000000000000e+00 0.0000000000000000e+00  1.9347845057897974e-03 0.0000000000000000e+00 0.0000000000000000e+00  -1.1021962299691782e-02 0.0000000000000000e+00 0.0000000000000000e+00  9.0955127936458800e-03 0.0000000000000000e+00 0.0000000000000000e+00  4.2758179703890113e-02 0.0000000000000000e+00 0.0000000000000000e+00  2.6987332953958363e-02 0.0000000000000000e+00 0.0000000000000000e+00  -3.9909696993703109e-01 0.0000000000000000e+00 0.0000000000000000e+00  1.5867212261377493e-03 0.0000000000000000e+00 0.0000000000000000e+00  -5.0054274426852441e-01 0.0000000000000000e+00 0.0000000000000000e+00  -2.2063711576187912e-04 0.0000000000000000e+00 0.0000000000000000e+00  1.6779616682554652e-01 0.0000000000000000e+00 0.0000000000000000e+00  -6.0356219296628454e-02 0.0000000000000000e+00 0.0000000000000000e+00  -1.0246614103256767e-02 0.0000000000000000e+00 0.0000000000000000e+00  8.3498575540348577e-02 0.0000000000000000e+00 0.0000000000000000e+00  -6.3800789422664517e-01 0.0000000000000000e+00 0.0000000000000000e+00  7.9468251437711968e-02 -1.2155792518169603e-02 0.0000000000000000e+00  -3.7674036156381284e-02 -4.1049561965883365e-02 0.0000000000000000e+00  7.0278540707822440e-02 -1.7679051382992170e-02 0.0000000000000000e+00  -2.5459512813274455e-02 1.3079125568872962e-01 0.0000000000000000e+00  -1.8182284521914893e-02 -5.4235831170459652e-02 0.0000000000000000e+00  -5.6909067863715648e-02 -1.2627760415264757e-02 0.0000000000000000e+00  -2.6102202243440076e-01 -5.0840406843408251e-02 0.0000000000000000e+00  -2.3735003138106361e-01 -5.7039529992901156e-02 0.0000000000000000e+00  -6.6950289730032517e-02 -6.6980050720699930e-02 0.0000000000000000e+00  -5.1808332399838808e-01 -5.1351333977524993e-01 0.0000000000000000e+00  -8.7366885673704278e-03 -3.1372095333438693e-01 0.0000000000000000e+00  2.3157066409721969e-02 5.2330989595154108e-02 0.0000000000000000e+00  -2.5770953268691160e-01 -9.2737484480456718e-03 0.0000000000000000e+00  1.9182376172746832e-02 -1.9270606067240684e-01 0.0000000000000000e+00  1.7334261142945909e-04 4.4208065475226654e-02 0.0000000000000000e+00  7.2339059112559126e-02 6.5434201898524641e-02 0.0000000000000000e+00  4.7668456957300570e-02 5.1691292534440606e-03 0.0000000000000000e+00  4.3284701802264708e-02 -3.7184713512280809e-01 0.0000000000000000e+00  4.5394065893035393e-02 -5.1284378094002070e-03 0.0000000000000000e+00  1.7258213779736647e-01 1.0764910152035700e-01 0.0000000000000000e+00  1.2517676706117598e-01 -2.1087434272876254e-01 0.0000000000000000e+00  1.7901339222257456e-01 1.8810508279971555e-01 0.0000000000000000e+00  3.2730092439192310e-02 -4.6003073042824678e-03 0.0000000000000000e+00  1.0302212621212140e-01 1.1182922196748592e-01 0.0000000000000000e+00  2.4042803688793074e-01 2.4701647729383591e-01 0.0000000000000000e+00  -1.4483427867031953e-02 1.6721237067735401e-01 0.0000000000000000e+00  5.2273521317114546e-02 1.6523825339396980e-01 0.0000000000000000e+00  3.5927376085122621e-02 -6.4798262035132642e-02 0.0000000000000000e+00  -2.4422699638635059e-03 1.8363457768618946e-01 0.0000000000000000e+00  -1.2149948497068523e-01 3.1150914409317929e-02 0.0000000000000000e+00  -9.9280552129014696e-02 4.5271068515291502e-02 0.0000000000000000e+00  -3.2387086146635910e-04 4.0976884591617746e-02 0.0000000000000000e+00  2.4383598791461830e-01 6.2882569357611884e-02 0.0000000000000000e+00  -1.2480948146683427e-01 3.7801641158795363e-02 0.0000000000000000e+00  3.6158790372278829e-03 -5.2268446736901180e-04 0.0000000000000000e+00  7.0906379814463544e-02 7.1846888850399221e-02 0.0000000000000000e+00  1.2843723820698016e-01 1.3440374715619566e-01 0.0000000000000000e+00  -3.2722049421242572e-01 1.2857922959295394e+00 0.0000000000000000e+00  1.6341853374958770e+00 -7.8619423774426844e-01 0.0000000000000000e+00  1.3423542095146819e+00 -6.5376700730654624e-01 0.0000000000000000e+00  1.2074515360016795e+00 -6.4004866429062890e-01 0.0000000000000000e+00  1.2600526058568431e+00 1.2537560078611112e+00 0.0000000000000000e+00  7.9954912882877094e-02 4.9001148126856536e-01 0.0000000000000000e+00  4.3679792035691994e-01 -8.7281788197944382e-02 0.0000000000000000e+00  1.0809018763340922e-02 2.6206119946955408e-01 0.0000000000000000e+00  1.0018154721739342e-02 8.1707019563864863e-02 0.0000000000000000e+00  -4.1065578287876360e-02 -4.1574604752819710e-02 0.0000000000000000e+00  -4.0074625552117882e-02 -4.0495303219007461e-02 0.0000000000000000e+00  7.1092756577565142e-03 -4.0240389681054707e-02 0.0000000000000000e+00  -2.2583851949845198e-03 -9.4784970123496848e-02 0.0000000000000000e+00  -1.3287919845393979e-03 6.3460191420552037e-02 0.0000000000000000e+00  -1.5078420328995268e-03 -1.0277633357328429e-03 0.0000000000000000e+00  5.6632421991897469e-02 5.7970923604690361e-02 0.0000000000000000e+00  -1.1423538411812473e-01 3.4125901211798204e-01 0.0000000000000000e+00  3.4306623247564033e-01 4.0798187967131361e-02 0.0000000000000000e+00  -1.1167633400562173e-01 1.3628039168276279e-01 0.0000000000000000e+00  -1.5694282211136526e-01 2.4688910367287031e-01 0.0000000000000000e+00  1.1234436397689430e-02 -1.1184560725994899e-01 0.0000000000000000e+00  4.9953426967976940e-03 -7.4080324603383374e-02 0.0000000000000000e+00  -1.0106559730178113e-01 2.2614399235250002e-01 0.0000000000000000e+00  6.1722679128278568e-01 2.7023441397211787e-02 0.0000000000000000e+00  2.9145522389358459e-03 -4.0494768752542300e-02 0.0000000000000000e+00  -4.1808926860616158e-02 -5.5179693107822031e-03 0.0000000000000000e+00  3.1288385763502763e-02 -8.7114853418392355e-03 0.0000000000000000e+00  4.2011537651880038e-02 4.5168292505778834e-02 0.0000000000000000e+00  6.2429679411256517e-03 7.4892616566954659e-03 0.0000000000000000e+00  2.1657760976411474e-02 4.5172886526619341e-02 0.0000000000000000e+00  1.0948872344067348e-03 -1.1436912381180553e-03 0.0000000000000000e+00  1.8433361726403294e-02 2.5362476733749185e-02 0.0000000000000000e+00  7.8368158789193385e-02 6.5173395686833557e-02 0.0000000000000000e+00  4.9424326502362066e-02 7.1203729430836415e-02 0.0000000000000000e+00  1.1031506913957859e-03 -3.6750148499540836e-03 0.0000000000000000e+00  5.7086982315726752e-02 5.7953672988923087e-02 0.0000000000000000e+00  8.4425013920335062e-04 1.8100370538023807e-02 0.0000000000000000e+00  5.2805204975933770e-04 -8.8656028295937828e-03 0.0000000000000000e+00  -4.4466463631794712e-03 6.2331563695332184e-04 0.0000000000000000e+00  1.3366531526768205e-02 6.6916592606503997e-03 0.0000000000000000e+00  -7.9725581166288292e-03 1.0674977059070518e-02 0.0000000000000000e+00  -1.4062914047543597e-02 1.0713917886938387e-01 0.0000000000000000e+00  3.2163802239795328e-02 3.6838022041902611e-02 0.0000000000000000e+00  -2.5590567976676096e-02 1.2183900267910924e-01 0.0000000000000000e+00  -2.4606973867049367e-02 1.2017019270619281e-02 0.0000000000000000e+00  -6.3697812991784586e-04 1.9455472523438860e-04 0.0000000000000000e+00  2.0533904641237995e-02 1.1969249830812386e-03 0.0000000000000000e+00  -7.2248159879730837e-05 2.2622150560387730e-02 0.0000000000000000e+00  2.1902797844248634e-02 2.0502251912975715e-02 0.0000000000000000e+00  4.2069817022529401e-03 8.3160576923233254e-03 0.0000000000000000e+00  1.5337180765037615e-03 6.5625522563822619e-03 0.0000000000000000e+00  -1.4417589864115857e-03 1.1503633986099139e-02 0.0000000000000000e+00  -2.5525726422842857e-02 -1.1235683014769567e-02 0.0000000000000000e+00  2.0638908013410852e-03 -7.2039306011172199e-02 0.0000000000000000e+00  1.6810824083740884e-02 1.6277438011436580e-03 0.0000000000000000e+00  5.9273989078285228e-03 8.1880409054349602e-03 0.0000000000000000e+00  9.4644055380925865e-03 8.7486066787694217e-03 0.0000000000000000e+00  7.7516867390555822e-03 1.0123418916393715e-02 0.0000000000000000e+00  8.0761215851422180e-05 3.4510408048110501e-04 0.0000000000000000e+00  -9.1375092125381158e-04 -5.8133460323139905e-04 0.0000000000000000e+00  6.5444808279381504e-03 3.8191238696187527e-03 0.0000000000000000e+00  4.3102680690897278e-03 -4.1875777995282418e-04 0.0000000000000000e+00  1.3917040547886115e-02 -6.4576049712124607e-04 0.0000000000000000e+00  -1.5255222993198821e-02 -8.9240073328601018e-03 0.0000000000000000e+00  1.4115243413261609e-03 2.8139055729129185e-04 0.0000000000000000e+00  1.5082198081195343e-03 -3.6839198210620022e-03 0.0000000000000000e+00  -7.3285890786813149e-03 1.5573885708572033e-02 0.0000000000000000e+00  -9.8451461569896842e-03 -9.8486021213917800e-03 0.0000000000000000e+00  4.7035265638598316e-03 2.0222403855426670e-03 0.0000000000000000e+00  1.3794276444936623e-03 3.3264653402612977e-04 0.0000000000000000e+00  -3.8542292277092965e-03 1.6230085883073807e-04 0.0000000000000000e+00  -4.9234720077635970e-03 5.4536325440379414e-03 0.0000000000000000e+00  5.9848496436815148e-03 4.6579889906990506e-03 0.0000000000000000e+00  1.3900882822759798e-04 3.3461959235458680e-04 0.0000000000000000e+00  8.7176198741520874e-05 -3.5361233036688587e-04 0.0000000000000000e+00  3.3214766765143249e-03 1.7690097377576061e-03 0.0000000000000000e+00  2.4039929868166195e-03 1.0382291555939417e-03 0.0000000000000000e+00  2.2975372406296599e-04 5.7963287796542222e-04 0.0000000000000000e+00  2.1506732346838934e-05 2.7965485433304989e-04 0.0000000000000000e+00  1.1517076062673165e-04 4.5407586417898853e-05 0.0000000000000000e+00  5.4194897160349123e-04 -1.2066746974964090e-02 0.0000000000000000e+00  6.7093372042924537e-02 7.2508560700366292e-02 0.0000000000000000e+00  7.6223753363776280e-04 1.7592500785975351e-03 0.0000000000000000e+00  7.5577131782077062e-02 -5.0066740354536249e-04 0.0000000000000000e+00  8.1875428848546834e-03 7.7628569586824740e-03 0.0000000000000000e+00  -3.1022173619798944e-03 9.0206454875899345e-03 0.0000000000000000e+00  -4.2557688591014248e-02 -5.6702392272102359e-02 0.0000000000000000e+00  6.6207796274103826e-03 2.2143200366761859e-02 0.0000000000000000e+00  1.1779860621048074e-01 4.3712022414808949e-01 0.0000000000000000e+00  5.6909139738473676e-02 1.1099475956330866e-02 0.0000000000000000e+00  -9.6954229445971873e-01 1.6568716594536401e+00 0.0000000000000000e+00  -5.6197044456615178e-03 3.6402268035067388e-02 0.0000000000000000e+00  1.2079836049302788e-03 1.1049518844646264e-03 0.0000000000000000e+00  1.3030729983549830e-02 -5.8854383180148837e-02 0.0000000000000000e+00  2.2155023498906988e-02 5.9086826351382149e-01 0.0000000000000000e+00  -1.8613058445275082e-02 -1.9345271078262713e-02 0.0000000000000000e+00  -8.4800929675223541e-02 -8.8350158040981966e-02 0.0000000000000000e+00  1.0018500170233111e-01 1.3274022472765615e-01 0.0000000000000000e+00  7.7208738217476591e-03 8.1063347563654995e-03 0.0000000000000000e+00  -1.2672254385722778e-01 -1.2491734981870364e-01 0.0000000000000000e+00  3.3409418849696636e-04 7.0535161398364854e-04 0.0000000000000000e+00  9.8851172086860707e-04 4.0233924944437338e-02 0.0000000000000000e+00  4.0701932803740959e-02 4.0923694615184414e-02 0.0000000000000000e+00  2.0975350873969928e-02 9.0292319102745454e-03 0.0000000000000000e+00  -9.8381624772062616e-03 3.5874246120023122e-02 0.0000000000000000e+00  -4.3229994043236478e-02 9.8592207873822196e-02 0.0000000000000000e+00  -3.6925735048621872e-02 -3.8238850562612142e-02 0.0000000000000000e+00  -2.2104746459526398e-02 -1.5636651866291096e-02 0.0000000000000000e+00  2.1228227809222572e-01 1.0863770383428047e-01 0.0000000000000000e+00  7.5495129925453458e-02 7.8650391339313661e-02 0.0000000000000000e+00  -1.1321833146066426e-02 1.4584798023723963e-02 0.0000000000000000e+00  8.2957307212782293e-03 6.7736645370610209e-04 0.0000000000000000e+00  -7.9165065179389780e-04 -1.6442831271726022e-02 0.0000000000000000e+00  1.4775837453519930e-03 3.5057929620489897e-03 0.0000000000000000e+00  -6.8611774650982615e-02 -5.0082264598746773e-01 0.0000000000000000e+00  1.0305565071632595e-02 6.4832779850440309e-02 0.0000000000000000e+00  2.8634123175343001e-02 1.0657293187173414e-01 0.0000000000000000e+00  6.9840945277340437e-03 2.9823596359389568e-02 0.0000000000000000e+00  1.1099066232759327e-02 3.1846848355598844e-03 0.0000000000000000e+00  6.1741458076912097e-03 1.6794482334773052e-02 0.0000000000000000e+00  1.4883288246843740e-01 1.6146046997182284e-01 0.0000000000000000e+00  4.1035255261888462e-03 -2.6404713688195976e-02 0.0000000000000000e+00  -3.9351959404410927e-02 -3.7674026322604998e-02 0