<?xml version="1.0"?>
<VTKFile type="UnstructuredGrid"  version="0.1"  >
<UnstructuredGrid>
<Piece  NumberOfPoints="4372" NumberOfCells="8502">
<Points>
<DataArray  type="Float64"  NumberOfComponents="3"  format="ascii">-2 2 0  0 2 0  0 -2 0  -2 -2 0  -1.949999999999792 2 0  -1.899999999999584 2 0  -1.849999999999375 2 0  -1.799999999999167 2 0  -1.749999999999002 2 0  -1.699999999999306 2 0  -1.649999999999653 2 0  -1.6 2 0  -1.550000000000346 2 0  -1.500000000000693 2 0  -1.45000000000104 2 0  -1.400000000001387 2 0  -1.350000000001733 2 0  -1.30000000000208 2 0  -1.250000000002427 2 0  -1.200000000002774 2 0  -1.150000000003121 2 0  -1.100000000003467 2 0  -1.050000000003814 2 0  -1.000000000004117 2 0  -0.9500000000039528 2 0  -0.9000000000037447 2 0  -0.8500000000035368 2 0  -0.8000000000033287 2 0  -0.7500000000031206 2 0  -0.7000000000029127 2 0  -0.6500000000027044 2 0  -0.6000000000024965 2 0  -0.5500000000022884 2 0  -0.5000000000020806 2 0  -0.4500000000018725 2 0  -0.4000000000016644 2 0  -0.3500000000014563 2 0  -0.3000000000012482 2 0  -0.2500000000010403 2 0  -0.200000000000832 2 0  -0.1500000000006243 2 0  -0.100000000000416 2 0  -0.0500000000002081 2 0  0 1.950000000000139 0  0 1.900000000000277 0  0 1.850000000000416 0  0 1.800000000000555 0  0 1.750000000000693 0  0 1.700000000000832 0  0 1.650000000000971 0  0 1.60000000000111 0  0 1.550000000001248 0  0 1.500000000001387 0  0 1.450000000001526 0  0 1.400000000001664 0  0 1.350000000001803 0  0 1.300000000001942 0  0 1.250000000002081 0  0 1.200000000002219 0  0 1.150000000002358 0  0 1.100000000002496 0  0 1.050000000002635 0  0 1.000000000002774 0  0 0.9500000000029125 0  0 0.9000000000030515 0  0 0.8500000000031902 0  0 0.8000000000033287 0  0 0.7500000000034674 0  0 0.7000000000036062 0  0 0.6500000000037449 0  0 0.6000000000038836 0  0 0.5500000000040224 0  0 0.5000000000041611 0  0 0.4500000000042998 0  0 0.4000000000044384 0  0 0.3500000000045771 0  0 0.3000000000047156 0  0 0.2500000000048543 0  0 0.2000000000049929 0  0 0.1500000000051318 0  0 0.1000000000052705 0  0 0.05000000000540905 0  0 5.504485756091526e-12 0  0 -0.04999999999459082 0  0 -0.09999999999472964 0  0 -0.149999999994868 0  0 -0.1999999999950068 0  0 -0.2499999999951457 0  0 -0.299999999995284 0  0 -0.3499999999954229 0  0 -0.3999999999955617 0  0 -0.4499999999957001 0  0 -0.4999999999958389 0  0 -0.5499999999959777 0  0 -0.5999999999961165 0  0 -0.6499999999962549 0  0 -0.6999999999963937 0  0 -0.7499999999965326 0  0 -0.7999999999966709 0  0 -0.8499999999968098 0  0 -0.8999999999969486 0  0 -0.949999999997087 0  0 -0.9999999999972258 0  0 -1.049999999997365 0  0 -1.099999999997503 0  0 -1.149999999997642 0  0 -1.199999999997781 0  0 -1.249999999997919 0  0 -1.299999999998058 0  0 -1.349999999998198 0  0 -1.399999999998336 0  0 -1.449999999998474 0  0 -1.499999999998613 0  0 -1.549999999998751 0  0 -1.599999999998891 0  0 -1.64999999999903 0  0 -1.699999999999168 0  0 -1.749999999999306 0  0 -1.799999999999445 0  0 -1.849999999999584 0  0 -1.899999999999723 0  0 -1.949999999999862 0  -0.04999999999990573 -2 0  -0.0999999999997993 -2 0  -0.1499999999997056 -2 0  -0.1999999999996293 -2 0  -0.2499999999995475 -2 0  -0.2999999999994072 -2 0  -0.3499999999992615 -2 0  -0.3999999999991157 -2 0  -0.44999999999897 -2 0  -0.4999999999988242 -2 0  -0.5499999999986784 -2 0  -0.5999999999985328 -2 0  -0.649999999998387 -2 0  -0.6999999999982413 -2 0  -0.7499999999980955 -2 0  -0.7999999999979498 -2 0  -0.8499999999978042 -2 0  -0.8999999999976585 -2 0  -0.9499999999975127 -2 0  -0.9999999999973885 -2 0  -1.049999999997498 -2 0  -1.09999999999763 -2 0  -1.149999999997762 -2 0  -1.199999999997894 -2 0  -1.249999999998025 -2 0  -1.299999999998157 -2 0  -1.349999999998289 -2 0  -1.39999999999842 -2 0  -1.449999999998552 -2 0  -1.499999999998683 -2 0  -1.549999999998815 -2 0  -1.599999999998947 -2 0  -1.649999999999078 -2 0  -1.69999999999921 -2 0  -1.749999999999342 -2 0  -1.799999999999474 -2 0  -1.849999999999605 -2 0  -1.899999999999737 -2 0  -1.949999999999869 -2 0  -2 -1.950000000000139 0  -2 -1.900000000000277 0  -2 -1.850000000000416 0  -2 -1.800000000000555 0  -2 -1.750000000000693 0  -2 -1.700000000000832 0  -2 -1.650000000000971 0  -2 -1.60000000000111 0  -2 -1.550000000001248 0  -2 -1.500000000001387 0  -2 -1.450000000001526 0  -2 -1.400000000001664 0  -2 -1.350000000001803 0  -2 -1.300000000001942 0  -2 -1.250000000002081 0  -2 -1.200000000002219 0  -2 -1.150000000002358 0  -2 -1.100000000002496 0  -2 -1.050000000002635 0  -2 -1.000000000002774 0  -2 -0.9500000000029125 0  -2 -0.9000000000030515 0  -2 -0.8500000000031902 0  -2 -0.8000000000033287 0  -2 -0.7500000000034674 0  -2 -0.7000000000036062 0  -2 -0.6500000000037449 0  -2 -0.6000000000038836 0  -2 -0.5500000000040224 0  -2 -0.5000000000041611 0  -2 -0.4500000000042998 0  -2 -0.4000000000044384 0  -2 -0.3500000000045771 0  -2 -0.3000000000047156 0  -2 -0.2500000000048543 0  -2 -0.2000000000049929 0  -2 -0.1500000000051318 0  -2 -0.1000000000052705 0  -2 -0.05000000000540905 0  -2 -5.504485756091526e-12 0  -2 0.04999999999459082 0  -2 0.09999999999472964 0  -2 0.149999999994868 0  -2 0.1999999999950068 0  -2 0.2499999999951457 0  -2 0.299999999995284 0  -2 0.3499999999954229 0  -2 0.3999999999955617 0  -2 0.4499999999957001 0  -2 0.4999999999958389 0  -2 0.5499999999959777 0  -2 0.5999999999961165 0  -2 0.6499999999962549 0  -2 0.6999999999963937 0  -2 0.7499999999965326 0  -2 0.7999999999966709 0  -2 0.8499999999968098 0  -2 0.8999999999969486 0  -2 0.949999999997087 0  -2 0.9999999999972258 0  -2 1.049999999997365 0  -2 1.099999999997503 0  -2 1.149999999997642 0  -2 1.199999999997781 0  -2 1.249999999997919 0  -2 1.299999999998058 0  -2 1.349999999998198 0  -2 1.399999999998336 0  -2 1.449999999998474 0  -2 1.499999999998613 0  -2 1.549999999998751 0  -2 1.599999999998891 0  -2 1.64999999999903 0  -2 1.699999999999168 0  -2 1.749999999999306 0  -2 1.799999999999445 0  -2 1.849999999999584 0  -2 1.899999999999723 0  -2 1.949999999999862 0  -0.9991019297010011 -0.3216894116769606 0  -1.001123860021573 0.7747860510049681 0  -1.157001840564423 -1.161067247012082 0  -1.338027560051535 1.335779534439809 0  -0.6597222222209854 1.340277777778947 0  -0.6585505322915344 0.2210104638722434 0  -1.342670381551713 0.2273264508688188 0  -0.6282204758073073 -0.8120080430170664 0  -0.584236517600881 -1.424312893620663 0  -1.444216308265114 -0.6762220291217811 0  -0.5052068177397626 0.8617966625436217 0  -1.495725541732084 0.8726406067560636 0  -0.5012956875285356 -0.2537377131698332 0  -1.505964779037762 -1.506864731248248 0  -1.533439101629034 -0.2141932377592857 0  -0.9980909254944228 -1.563025322244478 0  -1.573871097078973 -1.076090339205781 0  -0.9938363905916023 1.574658399668859 0  -1.034823301857025 -0.7463046737786232 0  -1.613643420611705 1.613643420611667 0  -0.3789826634893113 1.622833641383097 0  -0.9969623469406674 0.06224895986291776 0  -0.9977570821219073 1.152964911765466 0  -0.3827586671415756 0.4981078379584384 0  -1.617241332858342 0.4981078379584687 0  -0.3735162279179589 -1.10055932464888 0  -0.9514697352838486 0.4195344991084976 0  -0.3671724871528862 -0.5890291676826473 0  -0.8024708669961921 -1.130631989953667 0  -0.3498086031259764 1.176326426441 0  -1.654591699695181 1.175475929606857 0  -0.3418462529951587 0.05839036814553086 0  -1.276352049535552 0.5646214960700082 0  -0.3455726757630372 -1.654274000872155 0  -1.662000930981631 0.09800841401402562 0  -0.7326605900058469 -0.5029780286614124 0  -0.6815317218188973 0.6015493889244842 0  -1.294915051768271 1.68349586060536 0  -0.6978609120161386 1.682418596511037 0  -1.69042813419972 -0.4820149800903958 0  -0.7177378365368432 -1.691938564923942 0  -1.295041566734205 -0.3964989221993158 0  -1.257425593209587 -1.693594420665469 0  -1.246383246782414 -0.1148360514526407 0  -0.7362449271051545 -0.05964032805167522 0  -1.707983706106591 -0.8099422821034401 0  -0.7716224277305496 0.9720234774828133 0  -1.275827556233888 1.059370830779667 0  -1.709731219610966 -1.713515019749574 0  -0.283604077223767 -1.378462113197051 0  -1.331628086330126 -0.9256871504417986 0  -1.718803648671523 -1.313287096736098 0  -1.237157326776588 -1.417624750871973 0  -0.2754377852160807 -0.8405670548436512 0  -0.2604914310470714 0.745077019249353 0  -1.729633983752603 0.7365041208839631 0  -0.2591591556650803 -0.3445128723686334 0  -0.2497705497594995 0.2862378673199174 0  -0.2571319926197782 1.401471300128245 0  -1.750457518478978 1.404891698644917 0  -0.8313391195977098 -1.383947161511035 0  -1.24247470005791 0.8083576983762071 0  -1.75762809210058 -0.121394575294928 0  -1.436009639427774 -1.277692839795198 0  -0.9951285024698884 -0.9801850598617781 0  -0.5860531098993602 1.102916873865959 0  -1.107154037528234 1.367740498542844 0  -1.765353655027761 0.3139359895551974 0  -0.239693234576285 0.9675382248711792 0  -1.762311524625569 0.9715314837693784 0  -1.453060458314344 0.01668426334404738 0  -1.118216683883963 0.2510494134873997 0  -1.487314750788142 -1.768895281943666 0  -0.775695807447912 -0.2851187916602083 0  -1.775021992875828 1.773058151300929 0  -0.2244440016626344 1.771853493176412 0  -0.8797519944267721 1.389822301404418 0  -1.220958717521525 -0.6178523500889427 0  -0.59343770640056 -1.180817576357191 0  -0.9262618789157869 -1.776942446977449 0  -0.2205428235968764 -0.1260615883490472 0  -1.10972339161439 1.777127575560661 0  -0.9394997616645768 -0.5365790009321401 0  -0.812081892264416 -0.7153463049796221 0  -1.783917055200667 -1.008716696077253 0  -0.515263853692324 -1.788606832309386 0  -0.8883686379713935 1.780240085569055 0  -1.545545177082075 0.2916466799431231 0  -1.490071498349099 1.777107893879804 0  -0.5133806951054479 1.777756514587614 0  -1.042544744196485 -1.335739934857762 0  -0.8641039527440014 0.2249999999994 0  -1.475046450324973 0.6546028915744984 0  -1.529677928948796 1.412892352790367 0  -0.4613578028330296 1.41527900122371 0  -1.790928681625402 -1.
[...]
<PointData  Vectors="f_1087-0"> 
<DataArray  type="Float64"  Name="f_1087-0"  NumberOfComponents="3" format="ascii">-6.3750239320420864e-03 -1.1795201604367317e-03 0.0000000000000000e+00  2.2711713543407089e-03 0.0000000000000000e+00 0.0000000000000000e+00  -5.0649749337444944e-04 0.0000000000000000e+00 0.0000000000000000e+00  -2.1745194555846017e-02 -8.4195768874075677e-02 0.0000000000000000e+00  -2.0179237000552373e-03 -6.1590481119024292e-04 0.0000000000000000e+00  -7.7680750546817975e-05 1.3776359956194477e-04 0.0000000000000000e+00  -2.2938846969867376e-02 -2.8146907704324785e-02 0.0000000000000000e+00  -1.5976431971397734e-03 1.0703774588999068e-02 0.0000000000000000e+00  -4.4839824020297464e-03 -1.7563829253045568e-03 0.0000000000000000e+00  -9.6383225620403756e-03 -2.6150144543692546e-03 0.0000000000000000e+00  5.5061200950487403e-03 -2.6906746728667962e-04 0.0000000000000000e+00  4.2474101624336100e-03 2.7155749555119320e-04 0.0000000000000000e+00  8.3435715863122662e-04 -1.4658830900438637e-05 0.0000000000000000e+00  4.0485730546279651e-03 3.8742891042341455e-04 0.0000000000000000e+00  2.5633390182111236e-03 1.9152080476160264e-03 0.0000000000000000e+00  1.3033630479785407e-03 9.3995402945767567e-04 0.0000000000000000e+00  -3.7618528347275956e-02 -9.4010572942266890e-03 0.0000000000000000e+00  6.4280939901066834e-03 7.6106225087627035e-04 0.0000000000000000e+00  9.7318467921529220e-03 2.1466245214453532e-03 0.0000000000000000e+00  9.2527910433504547e-04 3.5332266301794030e-03 0.0000000000000000e+00  -1.6254032552311178e-02 -1.3443049460191996e-02 0.0000000000000000e+00  -1.9352893362278668e-02 -1.4933953157600339e-02 0.0000000000000000e+00  2.9983160819215572e-02 1.5005177781791132e-02 0.0000000000000000e+00  8.8595845991132588e-04 -3.2290841876456955e-03 0.0000000000000000e+00  3.2974034445368600e-03 1.0027821272444682e-02 0.0000000000000000e+00  -7.0412372803972992e-04 3.0413471310539219e-03 0.0000000000000000e+00  6.0729041226175373e-04 1.9662986449868549e-02 0.0000000000000000e+00  4.1507804097230400e-03 2.1355027718281762e-04 0.0000000000000000e+00  1.3728623744734936e-02 7.5983257345932885e-04 0.0000000000000000e+00  3.1948275241684568e-03 1.0915873317932062e-02 0.0000000000000000e+00  6.1404336494181179e-04 2.7190553352424620e-03 0.0000000000000000e+00  -5.9948812290125858e-02 -4.9141140998795782e-02 0.0000000000000000e+00  1.9636027767333062e-03 -7.5711669673696094e-02 0.0000000000000000e+00  -2.1030932185441366e-02 6.0452005664023187e-02 0.0000000000000000e+00  -2.0944317669023462e-02 1.1076271190270223e-03 0.0000000000000000e+00  -1.9347773861461859e-02 4.5934456070327895e-02 0.0000000000000000e+00  -1.8156485796057949e-02 -1.9456997832741900e-02 0.0000000000000000e+00  -1.1594296856123116e-02 -1.7690055442190274e-02 0.0000000000000000e+00  -7.0908827246871598e-03 4.5313183629653739e-02 0.0000000000000000e+00  -9.7428129433034289e-04 1.7537713573731034e-03 0.0000000000000000e+00  5.3227030169380107e-03 6.3423633821174958e-03 0.0000000000000000e+00  6.7015535942494073e-03 1.2074958324392563e-02 0.0000000000000000e+00  4.9340809393301653e-03 7.2777422687653518e-04 0.0000000000000000e+00  3.6729131352824910e-04 0.0000000000000000e+00 0.0000000000000000e+00  -1.0906310705719781e-01 0.0000000000000000e+00 0.0000000000000000e+00  -1.6601748974777661e-02 0.0000000000000000e+00 0.0000000000000000e+00  -1.1010055791100858e-02 0.0000000000000000e+00 0.0000000000000000e+00  -3.9341302582280527e-03 0.0000000000000000e+00 0.0000000000000000e+00  -2.2523995823385671e-03 0.0000000000000000e+00 0.0000000000000000e+00  -1.6479585704674490e-04 0.0000000000000000e+00 0.0000000000000000e+00  3.1796265341873711e-03 0.0000000000000000e+00 0.0000000000000000e+00  3.7316177497583210e-03 0.0000000000000000e+00 0.0000000000000000e+00  5.2562684052093198e-03 0.0000000000000000e+00 0.0000000000000000e+00  3.2229908318021268e-04 0.0000000000000000e+00 0.0000000000000000e+00  4.9925346188901985e-03 0.0000000000000000e+00 0.0000000000000000e+00  4.3408439369499296e-03 0.0000000000000000e+00 0.0000000000000000e+00  1.0141965167873586e-02 0.0000000000000000e+00 0.0000000000000000e+00  2.4628281710675142e-02 0.0000000000000000e+00 0.0000000000000000e+00  -1.0187765224266860e-02 0.0000000000000000e+00 0.0000000000000000e+00  2.5250890158686028e-02 0.0000000000000000e+00 0.0000000000000000e+00  4.2753313094135881e-02 0.0000000000000000e+00 0.0000000000000000e+00  3.3486229438040353e-02 0.0000000000000000e+00 0.0000000000000000e+00  -8.5908257359930407e-01 0.0000000000000000e+00 0.0000000000000000e+00  1.1833872647964189e-01 0.0000000000000000e+00 0.0000000000000000e+00  -1.0046278146878537e-01 0.0000000000000000e+00 0.0000000000000000e+00  5.8990449111501794e-02 0.0000000000000000e+00 0.0000000000000000e+00  -7.3083698781313836e-02 0.0000000000000000e+00 0.0000000000000000e+00  -6.4007003475532231e-02 0.0000000000000000e+00 0.0000000000000000e+00  7.6947933004646224e-02 0.0000000000000000e+00 0.0000000000000000e+00  7.1866218203263735e-04 0.0000000000000000e+00 0.0000000000000000e+00  1.5396929553594499e-01 0.0000000000000000e+00 0.0000000000000000e+00  8.1011187498562454e-02 0.0000000000000000e+00 0.0000000000000000e+00  -1.6373815650408402e-01 0.0000000000000000e+00 0.0000000000000000e+00  -1.6157571251336122e-01 0.0000000000000000e+00 0.0000000000000000e+00  -3.1344150717725713e-02 0.0000000000000000e+00 0.0000000000000000e+00  -1.8328849268888902e-02 0.0000000000000000e+00 0.0000000000000000e+00  -3.7933077528368331e-01 0.0000000000000000e+00 0.0000000000000000e+00  -1.2044593888104370e-01 0.0000000000000000e+00 0.0000000000000000e+00  -2.2218932828205923e-01 0.0000000000000000e+00 0.0000000000000000e+00  -1.5820688489531623e-02 0.0000000000000000e+00 0.0000000000000000e+00  -2.8104698569160064e-02 0.0000000000000000e+00 0.0000000000000000e+00  -3.7298565593129045e-02 0.0000000000000000e+00 0.0000000000000000e+00  -2.8795134183559421e-02 0.0000000000000000e+00 0.0000000000000000e+00  -2.9357083887976879e-02 0.0000000000000000e+00 0.0000000000000000e+00  -3.2657493028433189e-02 0.0000000000000000e+00 0.0000000000000000e+00  -3.9287907628120294e-01 0.0000000000000000e+00 0.0000000000000000e+00  -1.0211233049242546e-01 0.0000000000000000e+00 0.0000000000000000e+00  -1.0790267665957689e-03 0.0000000000000000e+00 0.0000000000000000e+00  7.6897723441220411e-01 0.0000000000000000e+00 0.0000000000000000e+00  -2.8653597422999971e-04 0.0000000000000000e+00 0.0000000000000000e+00  5.2432413436984543e-03 0.0000000000000000e+00 0.0000000000000000e+00  2.8304644875511813e-03 0.0000000000000000e+00 0.0000000000000000e+00  1.7926635960279394e-02 0.0000000000000000e+00 0.0000000000000000e+00  -1.2675888534262258e-01 0.0000000000000000e+00 0.0000000000000000e+00  -1.4416724083525820e-02 0.0000000000000000e+00 0.0000000000000000e+00  -9.0016874320691498e-02 0.0000000000000000e+00 0.0000000000000000e+00  -1.2338037392858218e-02 0.0000000000000000e+00 0.0000000000000000e+00  5.2946008254183864e-03 0.0000000000000000e+00 0.0000000000000000e+00  -6.8365680060939654e-02 0.0000000000000000e+00 0.0000000000000000e+00  -5.0336117305298314e-03 0.0000000000000000e+00 0.0000000000000000e+00  -7.7920416377036950e-03 0.0000000000000000e+00 0.0000000000000000e+00  -2.3681292830172500e-02 0.0000000000000000e+00 0.0000000000000000e+00  1.5519746176600485e-02 0.0000000000000000e+00 0.0000000000000000e+00  -1.8391061271927651e-02 0.0000000000000000e+00 0.0000000000000000e+00  -3.2447246407572239e-02 0.0000000000000000e+00 0.0000000000000000e+00  -9.8134790819461720e-04 0.0000000000000000e+00 0.0000000000000000e+00  3.5268644912726703e-03 0.0000000000000000e+00 0.0000000000000000e+00  -6.7497883051816782e-04 0.0000000000000000e+00 0.0000000000000000e+00  -7.5167165846691530e-04 0.0000000000000000e+00 0.0000000000000000e+00  -4.1224942372727110e-04 0.0000000000000000e+00 0.0000000000000000e+00  -1.8497586853311928e-03 0.0000000000000000e+00 0.0000000000000000e+00  3.8104969613624827e-03 0.0000000000000000e+00 0.0000000000000000e+00  3.1118173459954868e-03 0.0000000000000000e+00 0.0000000000000000e+00  -5.8838779150542447e-02 0.0000000000000000e+00 0.0000000000000000e+00  -4.1446908139685518e-04 0.0000000000000000e+00 0.0000000000000000e+00  -7.1092369376145881e-02 0.0000000000000000e+00 0.0000000000000000e+00  -3.2012642667654826e-04 0.0000000000000000e+00 0.0000000000000000e+00  2.1713245582985576e-02 0.0000000000000000e+00 0.0000000000000000e+00  -9.1656564397438120e-03 0.0000000000000000e+00 0.0000000000000000e+00  -1.3390868737933582e-03 0.0000000000000000e+00 0.0000000000000000e+00  1.0679119062269184e-02 0.0000000000000000e+00 0.0000000000000000e+00  -8.2761783608033157e-02 0.0000000000000000e+00 0.0000000000000000e+00  1.0241926265989448e-02 -1.5525767077726772e-03 0.0000000000000000e+00  -5.1034573376701649e-03 -5.4544602475413394e-03 0.0000000000000000e+00  8.8781971178787979e-03 -2.6363558699986078e-03 0.0000000000000000e+00  -4.3741576783342638e-03 1.6746507175746425e-02 0.0000000000000000e+00  -2.2462015742354367e-03 -8.7921736407487218e-03 0.0000000000000000e+00  -9.5220438707911224e-03 -1.5281006014270133e-03 0.0000000000000000e+00  -4.1391583557228717e-02 -8.7283712345114228e-03 0.0000000000000000e+00  -3.9111102534802156e-02 -1.0068718564874972e-02 0.0000000000000000e+00  -1.3318542796575107e-02 -1.3784543421221701e-02 0.0000000000000000e+00  -7.8414845920619952e-02 -7.7216766289721434e-02 0.0000000000000000e+00  -1.2394772115629478e-03 -5.6724566214681610e-02 0.0000000000000000e+00  3.7169643861531777e-03 4.4824687624637240e-03 0.0000000000000000e+00  -4.9388416564346477e-02 -1.0450415967958870e-03 0.0000000000000000e+00  1.0124557386581370e-03 -2.7443111927951770e-02 0.0000000000000000e+00  -1.7217539064763813e-03 5.0970239080840203e-05 0.0000000000000000e+00  1.3172165820700237e-03 -3.6561352598784864e-03 0.0000000000000000e+00  5.1099533276817780e-03 -2.0142031155840935e-03 0.0000000000000000e+00  -1.5864791684199152e-02 -1.1577265147162202e-01 0.0000000000000000e+00  -8.1642628467742881e-03 -9.7225449122187186e-04 0.0000000000000000e+00  8.4045416163913075e-03 -5.7988256466629667e-03 0.0000000000000000e+00  -1.2621346792347041e-02 5.6104584798745159e-02 0.0000000000000000e+00  2.3105934829946297e-02 2.4590677700358960e-02 0.0000000000000000e+00  -4.6421704109754131e-02 -2.7980528699446880e-03 0.0000000000000000e+00  -3.9999421710952346e-03 -1.2451287416722009e-03 0.0000000000000000e+00  1.2662590227481063e-02 1.2243108811849049e-02 0.0000000000000000e+00  7.6393575506003304e-04 1.5643149544372105e-02 0.0000000000000000e+00  -2.3790151257729840e-02 1.1883037610306013e-03 0.0000000000000000e+00  1.1294086239533454e-02 -1.1302959835760346e-01 0.0000000000000000e+00  8.3749010241126430e-03 3.0586625231738534e-02 0.0000000000000000e+00  -1.1775145507467401e-01 -2.1837216138536585e-02 0.0000000000000000e+00  -5.7811322500154902e-02 8.7804905577332226e-03 0.0000000000000000e+00  7.7428581592577355e-04 2.1209882423564808e-02 0.0000000000000000e+00  2.7899919046984234e-01 -8.3523068056858413e-03 0.0000000000000000e+00  -1.9345610823171350e-01 -6.0712718449019820e-02 0.0000000000000000e+00  -1.4903983026976292e-02 -7.7438523405028159e-04 0.0000000000000000e+00  2.1698283373888530e-02 1.3313130922251254e-02 0.0000000000000000e+00  -1.0136971003496800e-01 -9.4137488441841805e-02 0.0000000000000000e+00  -2.6762268758788003e-02 -4.1219307101296199e-01 0.0000000000000000e+00  -5.6594359392170801e-01 -1.2325068542417034e-01 0.0000000000000000e+00  -3.7034932704839435e-01 -2.5366731372087826e-02 0.0000000000000000e+00  -2.8053544169883987e-01 -1.9788894936409535e-02 0.0000000000000000e+00  -3.0069797541399557e-01 -3.1070158322368124e-01 0.0000000000000000e+00  -1.8412550315756185e-01 -4.8592845601388046e-02 0.0000000000000000e+00  -5.0269867708548535e-02 6.1501647875075782e-02 0.0000000000000000e+00  1.4673267104627363e-01 -8.7731878318499712e-02 0.0000000000000000e+00  -1.4131907206271416e-02 9.8403968564163544e-02 0.0000000000000000e+00  -3.9807079639202089e-02 -3.8586916524786297e-02 0.0000000000000000e+00  -3.9683903256196223e-02 -3.9452851498086534e-02 0.0000000000000000e+00  9.1913693062340464e-03 -4.7478469235692211e-02 0.0000000000000000e+00  -3.5499036961925113e-03 -2.0802055229535882e-01 0.0000000000000000e+00  -4.6308428953547656e-03 1.4201743355659066e-01 0.0000000000000000e+00  -3.1972441569201970e-03 -4.8073140641909460e-03 0.0000000000000000e+00  1.9915028292833387e-01 1.8263427089959991e-01 0.0000000000000000e+00  1.5537857810371980e-01 -1.0502416533826145e-01 0.0000000000000000e+00  -7.0247058439181803e-02 1.7426014460533487e-01 0.0000000000000000e+00  1.7672592135503185e-01 -8.2996464480607296e-02 0.0000000000000000e+00  2.2724897668078839e-01 -1.2749345515054111e-01 0.0000000000000000e+00  -5.4248388818274140e-01 2.4126682357153079e-01 0.0000000000000000e+00  -1.0065765119270657e-02 2.4313523780795193e-01 0.0000000000000000e+00  2.5242451670444133e-01 -1.4634793973646534e-01 0.0000000000000000e+00  -9.2402421132755638e-02 -3.9756388196580707e-03 0.0000000000000000e+00  3.0823846011122230e-03 -3.9865687437634800e-02 0.0000000000000000e+00  -1.5191563681995429e-01 8.5284418906473244e-03 0.0000000000000000e+00  4.3121999364980228e-02 -1.9585415342463011e-03 0.0000000000000000e+00  1.8247087531324274e-01 1.7526003743557436e-01 0.0000000000000000e+00  -3.2662637849361265e-01 -3.3811821390944069e-01 0.0000000000000000e+00  -4.1028209162998619e-01 5.3484264852617459e-02 0.0000000000000000e+00  7.7313469158385145e-03 -1.9750080286189101e-01 0.0000000000000000e+00  2.1414565861667989e-01 -4.3459246201808688e-01 0.0000000000000000e+00  -6.4201767830023160e-01 -6.2219371899411891e-01 0.0000000000000000e+00  -2.6838874285393743e-01 -6.3727458169863027e-01 0.0000000000000000e+00  9.9635362913349963e-03 1.5370470136999742e-01 0.0000000000000000e+00  6.2998336991510251e-02 6.3829089114784646e-02 0.0000000000000000e+00  5.1794513937356912e-04 2.8534642793124933e-02 0.0000000000000000e+00  9.2665162703531962e-04 -7.0079469235089578e-02 0.0000000000000000e+00  -7.2535391673951621e-02 6.9709840689846430e-03 0.0000000000000000e+00  -1.5498157022297221e-01 -8.4343822986604478e-02 0.0000000000000000e+00  1.0952077390098608e-01 -1.0547867276814747e-01 0.0000000000000000e+00  1.6709138117712219e-01 -7.8365360974879472e-01 0.0000000000000000e+00  3.7546573472568942e-02 4.2246579812239456e-02 0.0000000000000000e+00  2.6137097799248799e-01 -8.5704295386137985e-01 0.0000000000000000e+00  2.4601540567335972e-01 2.6669378921538214e-02 0.0000000000000000e+00  -7.0844592321839088e-04 -2.7344764307654719e-03 0.0000000000000000e+00  1.7995302698680302e-02 -2.8674204006206476e-03 0.0000000000000000e+00  1.5916767695227667e-04 2.0361589227230914e-02 0.0000000000000000e+00  3.0263015462916164e-02 2.8314880464871819e-02 0.0000000000000000e+00  -3.1964740673139473e-03 2.0879451688238446e-02 0.0000000000000000e+00  6.9947465648624038e-03 -3.2741530154879211e-02 0.0000000000000000e+00  3.6071948352064329e-03 -5.9043838585390640e-02 0.0000000000000000e+00  3.7676407747248536e-02 9.2929939937652258e-03 0.0000000000000000e+00  2.4843710751643678e-03 1.4167540908776899e-01 0.0000000000000000e+00  2.2968526125637316e-02 1.8874991857578943e-03 0.0000000000000000e+00  1.1434425151636569e-02 5.9758060448038604e-03 0.0000000000000000e+00  7.5782307981028668e-03 6.6685161509915970e-03 0.0000000000000000e+00  1.6570185196338419e-02 8.6149196841377139e-03 0.0000000000000000e+00  -1.8427227005117443e-03 3.0912572118572445e-03 0.0000000000000000e+00  -5.0410280783198423e-05 -1.3795355726765577e-03 0.0000000000000000e+00  -1.0563351232796801e-02 -5.9000934887544635e-03 0.0000000000000000e+00  -1.3086937010807589e-02 -1.2551633308278849e-03 0.0000000000000000e+00  -5.5911891697431521e-02 -4.4271285465858493e-03 0.0000000000000000e+00  2.0602926948247110e-04 -1.0409899235034610e-03 0.0000000000000000e+00  -3.0877938773737996e-03 2.4212832678997091e-03 0.0000000000000000e+00  -3.5432131876508770e-03 -1.2199781257141672e-02 0.0000000000000000e+00  -4.0514075779507388e-04 -6.0696673470086220e-02 0.0000000000000000e+00  1.3891912538624020e-02 9.1467346673794071e-03 0.0000000000000000e+00  6.2110016917616808e-03 -5.7163075962602143e-06 0.0000000000000000e+00  2.8251147274292138e-03 7.3414161926403795e-04 0.0000000000000000e+00  1.3412364126441343e-02 7.3161818933791044e-04 0.0000000000000000e+00  -1.4528604455099249e-02 -2.3151484303833875e-02 0.0000000000000000e+00  9.0835464451233163e-03 7.1794682975334177e-03 0.0000000000000000e+00  -8.2851109761277100e-03 -8.2771590698078976e-04 0.0000000000000000e+00  1.7983481802185343e-04 -2.9292536463894147e-04 0.0000000000000000e+00  4.4646043306644590e-03 2.3711545068445545e-03 0.0000000000000000e+00  -1.2234994629239763e-02 -6.1423208764530505e-03 0.0000000000000000e+00  6.0148542866994407e-04 1.7199978437113178e-03 0.0000000000000000e+00  3.3454827774265943e-05 4.3935362472934456e-04 0.0000000000000000e+00  1.4405620820698924e-04 -5.6243181925501800e-05 0.0000000000000000e+00  -4.4110389083448316e-03 8.7159936608644847e-03 0.0000000000000000e+00  -2.7735057976904215e-01 1.5467202541616226e-01 0.0000000000000000e+00  3.4267819697532749e-03 2.5214366365444447e-02 0.0000000000000000e+00  1.0272520609446728e-01 7.5378314655209821e-04 0.0000000000000000e+00  4.7051177520130568e-03 1.7724422020920446e-02 0.0000000000000000e+00  -6.8440927041942077e-03 -4.7283138593417789e-02 0.0000000000000000e+00  -1.8088773492083041e-01 -2.0877561743393308e-01 0.0000000000000000e+00  -1.9134754577801749e-01 3.2013512970657756e-02 0.0000000000000000e+00  2.4312043642495808e-02 -3.3714565059441859e-01 0.0000000000000000e+00  -1.0803297421694219e-02 -9.6087534554785588e-03 0.0000000000000000e+00  -1.2161706136596789e-01 -5.1655993910132225e-01 0.0000000000000000e+00  -1.2627677793478363e-02 4.5530893156051563e-02 0.0000000000000000e+00  -2.6257427238820978e-03 -2.3004800204401332e-03 0.0000000000000000e+00  -6.5618761028718303e-03 -4.1536926896354416e-02 0.0000000000000000e+00  -1.2447606196572536e-03 -2.8308011904369285e-01 0.0000000000000000e+00  -7.6235543810526482e-02 -7.4677867205725668e-02 0.0000000000000000e+00  -3.9096539347913455e-02 -4.1087537827061135e-02 0.0000000000000000e+00  3.9203993916009580e-02 -1.0221866739203311e-01 0.0000000000000000e+00  1.0316299855283125e-02 9.4010736043844169e-03 0.0000000000000000e+00  -2.0981611138311573e-01 -1.8491454915045485e-01 0.0000000000000000e+00  1.6823020566770922e-03 3.5651692132890088e-03 0.0000000000000000e+00  -8.2629315283517060e-04 -2.1572853703322281e-01 0.0000000000000000e+00  2.2011022311894518e-01 2.1466236469002681e-01 0.0000000000000000e+00  5.5783872757095725e-02 4.9181880191300114e-03 0.0000000000000000e+00  -1.8454651646484188e-02 4.0592812433018828e-02 0.0000000000000000e+00  1.8946089570924829e-01 -6.8216911342417308e-01 0.0000000000000000e+00  -3.4972799747345407e-02 -2.0296010106969006e-02 0.0000000000000000e+00  -1.2435857200400111e-01 -1.0491435864590484e-01 0.0000000000000000e+00  1.1854111078890048e-02 -3.2302951042367332e-03 0.0000000000000000e+00  -1.3459954434419049e-02 -1.3444822102457614e-02 0.0000000000000000e+00  2.8136892627971810e-03 -7.3396377444607128e-02 0.0000000000000000e+00  -1.1314944202176300e-03 2.2903821118604841e-03 0.0000000000000000e+00  -6.6098645188247471e-03 -3.0967903814164061e-01 0.0000000000000000e+00  4.1693861437906987e-02 -5.4316298698387722e-02 0.0000000000000000e+00  -1.5630696240769210e-02 -7.2884728594159176e-02 0.0000000000000000e+00  2.6490411990327787e-02 5.8783953615266019e-02 0.0000000000000000e+00  -2.6295803250463587e-02 1.1267614402633427e-01 0.0000000000000000e+00  1.6945748362722693e-01 -3.7298955003915946e-01 0.0000000000000000e+00  1.4677948481375481e-02 4.0270657703699152e-03 0.0000000000000000e+00  8.0665050559524543e-03 2.5804085154604018e-02 0.0000000000000000e+00  -2.1454964760637649e-01 -2.5187196636421844e-01 0.0000000000000000e+00  -2.0451255497912026