<?xml version="1.0"?>
<VTKFile type="UnstructuredGrid"  version="0.1"  >
<UnstructuredGrid>
<Piece  NumberOfPoints="4372" NumberOfCells="8502">
<Points>
<DataArray  type="Float64"  NumberOfComponents="3"  format="ascii">-2 2 0  0 2 0  0 -2 0  -2 -2 0  -1.949999999999792 2 0  -1.899999999999584 2 0  -1.849999999999375 2 0  -1.799999999999167 2 0  -1.749999999999002 2 0  -1.699999999999306 2 0  -1.649999999999653 2 0  -1.6 2 0  -1.550000000000346 2 0  -1.500000000000693 2 0  -1.45000000000104 2 0  -1.400000000001387 2 0  -1.350000000001733 2 0  -1.30000000000208 2 0  -1.250000000002427 2 0  -1.200000000002774 2 0  -1.150000000003121 2 0  -1.100000000003467 2 0  -1.050000000003814 2 0  -1.000000000004117 2 0  -0.9500000000039528 2 0  -0.9000000000037447 2 0  -0.8500000000035368 2 0  -0.8000000000033287 2 0  -0.7500000000031206 2 0  -0.7000000000029127 2 0  -0.6500000000027044 2 0  -0.6000000000024965 2 0  -0.5500000000022884 2 0  -0.5000000000020806 2 0  -0.4500000000018725 2 0  -0.4000000000016644 2 0  -0.3500000000014563 2 0  -0.3000000000012482 2 0  -0.2500000000010403 2 0  -0.200000000000832 2 0  -0.1500000000006243 2 0  -0.100000000000416 2 0  -0.0500000000002081 2 0  0 1.950000000000139 0  0 1.900000000000277 0  0 1.850000000000416 0  0 1.800000000000555 0  0 1.750000000000693 0  0 1.700000000000832 0  0 1.650000000000971 0  0 1.60000000000111 0  0 1.550000000001248 0  0 1.500000000001387 0  0 1.450000000001526 0  0 1.400000000001664 0  0 1.350000000001803 0  0 1.300000000001942 0  0 1.250000000002081 0  0 1.200000000002219 0  0 1.150000000002358 0  0 1.100000000002496 0  0 1.050000000002635 0  0 1.000000000002774 0  0 0.9500000000029125 0  0 0.9000000000030515 0  0 0.8500000000031902 0  0 0.8000000000033287 0  0 0.7500000000034674 0  0 0.7000000000036062 0  0 0.6500000000037449 0  0 0.6000000000038836 0  0 0.5500000000040224 0  0 0.5000000000041611 0  0 0.4500000000042998 0  0 0.4000000000044384 0  0 0.3500000000045771 0  0 0.3000000000047156 0  0 0.2500000000048543 0  0 0.2000000000049929 0  0 0.1500000000051318 0  0 0.1000000000052705 0  0 0.05000000000540905 0  0 5.504485756091526e-12 0  0 -0.04999999999459082 0  0 -0.09999999999472964 0  0 -0.149999999994868 0  0 -0.1999999999950068 0  0 -0.2499999999951457 0  0 -0.299999999995284 0  0 -0.3499999999954229 0  0 -0.3999999999955617 0  0 -0.4499999999957001 0  0 -0.4999999999958389 0  0 -0.5499999999959777 0  0 -0.5999999999961165 0  0 -0.6499999999962549 0  0 -0.6999999999963937 0  0 -0.7499999999965326 0  0 -0.7999999999966709 0  0 -0.8499999999968098 0  0 -0.8999999999969486 0  0 -0.949999999997087 0  0 -0.9999999999972258 0  0 -1.049999999997365 0  0 -1.099999999997503 0  0 -1.149999999997642 0  0 -1.199999999997781 0  0 -1.249999999997919 0  0 -1.299999999998058 0  0 -1.349999999998198 0  0 -1.399999999998336 0  0 -1.449999999998474 0  0 -1.499999999998613 0  0 -1.549999999998751 0  0 -1.599999999998891 0  0 -1.64999999999903 0  0 -1.699999999999168 0  0 -1.749999999999306 0  0 -1.799999999999445 0  0 -1.849999999999584 0  0 -1.899999999999723 0  0 -1.949999999999862 0  -0.04999999999990573 -2 0  -0.0999999999997993 -2 0  -0.1499999999997056 -2 0  -0.1999999999996293 -2 0  -0.2499999999995475 -2 0  -0.2999999999994072 -2 0  -0.3499999999992615 -2 0  -0.3999999999991157 -2 0  -0.44999999999897 -2 0  -0.4999999999988242 -2 0  -0.5499999999986784 -2 0  -0.5999999999985328 -2 0  -0.649999999998387 -2 0  -0.6999999999982413 -2 0  -0.7499999999980955 -2 0  -0.7999999999979498 -2 0  -0.8499999999978042 -2 0  -0.8999999999976585 -2 0  -0.9499999999975127 -2 0  -0.9999999999973885 -2 0  -1.049999999997498 -2 0  -1.09999999999763 -2 0  -1.149999999997762 -2 0  -1.199999999997894 -2 0  -1.249999999998025 -2 0  -1.299999999998157 -2 0  -1.349999999998289 -2 0  -1.39999999999842 -2 0  -1.449999999998552 -2 0  -1.499999999998683 -2 0  -1.549999999998815 -2 0  -1.599999999998947 -2 0  -1.649999999999078 -2 0  -1.69999999999921 -2 0  -1.749999999999342 -2 0  -1.799999999999474 -2 0  -1.849999999999605 -2 0  -1.899999999999737 -2 0  -1.949999999999869 -2 0  -2 -1.950000000000139 0  -2 -1.900000000000277 0  -2 -1.850000000000416 0  -2 -1.800000000000555 0  -2 -1.750000000000693 0  -2 -1.700000000000832 0  -2 -1.650000000000971 0  -2 -1.60000000000111 0  -2 -1.550000000001248 0  -2 -1.500000000001387 0  -2 -1.450000000001526 0  -2 -1.400000000001664 0  -2 -1.350000000001803 0  -2 -1.300000000001942 0  -2 -1.250000000002081 0  -2 -1.200000000002219 0  -2 -1.150000000002358 0  -2 -1.100000000002496 0  -2 -1.050000000002635 0  -2 -1.000000000002774 0  -2 -0.9500000000029125 0  -2 -0.9000000000030515 0  -2 -0.8500000000031902 0  -2 -0.8000000000033287 0  -2 -0.7500000000034674 0  -2 -0.7000000000036062 0  -2 -0.6500000000037449 0  -2 -0.6000000000038836 0  -2 -0.5500000000040224 0  -2 -0.5000000000041611 0  -2 -0.4500000000042998 0  -2 -0.4000000000044384 0  -2 -0.3500000000045771 0  -2 -0.3000000000047156 0  -2 -0.2500000000048543 0  -2 -0.2000000000049929 0  -2 -0.1500000000051318 0  -2 -0.1000000000052705 0  -2 -0.05000000000540905 0  -2 -5.504485756091526e-12 0  -2 0.04999999999459082 0  -2 0.09999999999472964 0  -2 0.149999999994868 0  -2 0.1999999999950068 0  -2 0.2499999999951457 0  -2 0.299999999995284 0  -2 0.3499999999954229 0  -2 0.3999999999955617 0  -2 0.4499999999957001 0  -2 0.4999999999958389 0  -2 0.5499999999959777 0  -2 0.5999999999961165 0  -2 0.6499999999962549 0  -2 0.6999999999963937 0  -2 0.7499999999965326 0  -2 0.7999999999966709 0  -2 0.8499999999968098 0  -2 0.8999999999969486 0  -2 0.949999999997087 0  -2 0.9999999999972258 0  -2 1.049999999997365 0  -2 1.099999999997503 0  -2 1.149999999997642 0  -2 1.199999999997781 0  -2 1.249999999997919 0  -2 1.299999999998058 0  -2 1.349999999998198 0  -2 1.399999999998336 0  -2 1.449999999998474 0  -2 1.499999999998613 0  -2 1.549999999998751 0  -2 1.599999999998891 0  -2 1.64999999999903 0  -2 1.699999999999168 0  -2 1.749999999999306 0  -2 1.799999999999445 0  -2 1.849999999999584 0  -2 1.899999999999723 0  -2 1.949999999999862 0  -0.9991019297010011 -0.3216894116769606 0  -1.001123860021573 0.7747860510049681 0  -1.157001840564423 -1.161067247012082 0  -1.338027560051535 1.335779534439809 0  -0.6597222222209854 1.340277777778947 0  -0.6585505322915344 0.2210104638722434 0  -1.342670381551713 0.2273264508688188 0  -0.6282204758073073 -0.8120080430170664 0  -0.584236517600881 -1.424312893620663 0  -1.444216308265114 -0.6762220291217811 0  -0.5052068177397626 0.8617966625436217 0  -1.495725541732084 0.8726406067560636 0  -0.5012956875285356 -0.2537377131698332 0  -1.505964779037762 -1.506864731248248 0  -1.533439101629034 -0.2141932377592857 0  -0.9980909254944228 -1.563025322244478 0  -1.573871097078973 -1.076090339205781 0  -0.9938363905916023 1.574658399668859 0  -1.034823301857025 -0.7463046737786232 0  -1.613643420611705 1.613643420611667 0  -0.3789826634893113 1.622833641383097 0  -0.9969623469406674 0.06224895986291776 0  -0.9977570821219073 1.152964911765466 0  -0.3827586671415756 0.4981078379584384 0  -1.617241332858342 0.4981078379584687 0  -0.3735162279179589 -1.10055932464888 0  -0.9514697352838486 0.4195344991084976 0  -0.3671724871528862 -0.5890291676826473 0  -0.8024708669961921 -1.130631989953667 0  -0.3498086031259764 1.176326426441 0  -1.654591699695181 1.175475929606857 0  -0.3418462529951587 0.05839036814553086 0  -1.276352049535552 0.5646214960700082 0  -0.3455726757630372 -1.654274000872155 0  -1.662000930981631 0.09800841401402562 0  -0.7326605900058469 -0.5029780286614124 0  -0.6815317218188973 0.6015493889244842 0  -1.294915051768271 1.68349586060536 0  -0.6978609120161386 1.682418596511037 0  -1.69042813419972 -0.4820149800903958 0  -0.7177378365368432 -1.691938564923942 0  -1.295041566734205 -0.3964989221993158 0  -1.257425593209587 -1.693594420665469 0  -1.246383246782414 -0.1148360514526407 0  -0.7362449271051545 -0.05964032805167522 0  -1.707983706106591 -0.8099422821034401 0  -0.7716224277305496 0.9720234774828133 0  -1.275827556233888 1.059370830779667 0  -1.709731219610966 -1.713515019749574 0  -0.283604077223767 -1.378462113197051 0  -1.331628086330126 -0.9256871504417986 0  -1.718803648671523 -1.313287096736098 0  -1.237157326776588 -1.417624750871973 0  -0.2754377852160807 -0.8405670548436512 0  -0.2604914310470714 0.745077019249353 0  -1.729633983752603 0.7365041208839631 0  -0.2591591556650803 -0.3445128723686334 0  -0.2497705497594995 0.2862378673199174 0  -0.2571319926197782 1.401471300128245 0  -1.750457518478978 1.404891698644917 0  -0.8313391195977098 -1.383947161511035 0  -1.24247470005791 0.8083576983762071 0  -1.75762809210058 -0.121394575294928 0  -1.436009639427774 -1.277692839795198 0  -0.9951285024698884 -0.9801850598617781 0  -0.5860531098993602 1.102916873865959 0  -1.107154037528234 1.367740498542844 0  -1.765353655027761 0.3139359895551974 0  -0.239693234576285 0.9675382248711792 0  -1.762311524625569 0.9715314837693784 0  -1.453060458314344 0.01668426334404738 0  -1.118216683883963 0.2510494134873997 0  -1.487314750788142 -1.768895281943666 0  -0.775695807447912 -0.2851187916602083 0  -1.775021992875828 1.773058151300929 0  -0.2244440016626344 1.771853493176412 0  -0.8797519944267721 1.389822301404418 0  -1.220958717521525 -0.6178523500889427 0  -0.59343770640056 -1.180817576357191 0  -0.9262618789157869 -1.776942446977449 0  -0.2205428235968764 -0.1260615883490472 0  -1.10972339161439 1.777127575560661 0  -0.9394997616645768 -0.5365790009321401 0  -0.812081892264416 -0.7153463049796221 0  -1.783917055200667 -1.008716696077253 0  -0.515263853692324 -1.788606832309386 0  -0.8883686379713935 1.780240085569055 0  -1.545545177082075 0.2916466799431231 0  -1.490071498349099 1.777107893879804 0  -0.5133806951054479 1.777756514587614 0  -1.042544744196485 -1.335739934857762 0  -0.8641039527440014 0.2249999999994 0  -1.475046450324973 0.6546028915744984 0  -1.529677928948796 1.412892352790367 0  -0.4613578028330296 1.41527900122371 0  -1.790928681625402 -1.
[...]
<PointData  Scalars="f_1087-1"> 
<DataArray  type="Float64"  Name="f_1087-1"  format="ascii">-5.4546271718138397e-04  7.4763204488344078e-03  1.2413553307716145e-02  4.1750632276191515e-03  -5.0865712564573838e-03  7.5651392643562125e-04  -1.0084299998120571e-03  -6.7482344514456401e-03  -7.9480551102693831e-04  -2.4628148402033655e-03  7.1088109258608725e-04  1.8471002226642017e-03  -2.8430401757792271e-04  1.5871625166830208e-03  1.2855550346617883e-03  1.6669937641561119e-03  -1.1882334650161520e-02  6.5740199003077905e-03  9.5272459726972146e-03  1.5157670481445013e-03  2.7747324952574849e-02  3.6520382047997839e-02  -2.1783373016247354e-03  1.0183223527543118e-03  2.8125684138855249e-03  4.3834572813735498e-03  4.5825962606202159e-03  3.3669066666294472e-03  2.6048140477491154e-03  6.5116554279886954e-05  2.7265801179544324e-03  -1.7942863881660699e-02  -6.5038471020792254e-03  5.7230189690406132e-04  -1.7301687807698994e-02  -1.6201914485924167e-02  -1.3343313019451089e-02  -1.7919598724574708e-02  -8.2322894761960117e-03  -1.1765619253506750e-02  2.4812183908400087e-03  4.2725853996319080e-03  1.3365602604231076e-02  6.6698536347904597e-03  3.3674489521672902e-04  -2.7087286453917770e-02  -3.0034268361785150e-02  -1.2054354992720066e-02  5.8267919682740534e-03  -9.5319057583759439e-03  9.0761365148372460e-03  1.2284939081979647e-02  1.1377278617191757e-03  2.7418386525086318e-02  -1.4726115112543225e-01  9.1347721377864550e-04  -2.5986446757085776e-02  1.2932671111823407e-03  1.1339080537230825e-02  2.0151945121779615e-02  2.4065908978848114e-02  -1.8175929384401819e-03  -3.5616143277203156e-04  -8.8481270560131234e-02  4.6993628361444335e-03  -1.0010955135047181e-01  4.2812794439321358e-02  2.5571960015060159e-02  -3.7672739442692518e-02  -4.0801834084522187e-01  -6.1879728137955858e-01  -1.0599984916680746e-01  5.7431674487324377e-02  3.6616869752625639e-02  1.7013542518234503e-02  -3.9106901811372815e-04  9.6719367734910411e-02  -5.4075759944460330e-02  2.3516207994465038e-01  -1.2624635611732608e-02  -3.2515382303486780e-02  2.7217154218167226e-03  -4.1110801097716608e-02  -2.6196094820718666e-02  -1.6980834052441973e-01  -3.6342455286799957e-01  -4.1630117385527340e-02  -2.5965883578821108e-01  -5.3391994016216665e-02  -5.6246223138117779e-04  -2.7467746066543453e-03  -6.9225465383792650e-02  1.7133991702420623e-02  -3.2466193042829487e-02  -2.4475790544058709e-02  -8.8890251635963619e-02  -1.4346134895624000e-02  -6.6982683407900812e-02  -4.3807006246360334e-03  -3.1896451086711540e-02  2.0139523407945295e-02  -2.7700133762162415e-02  4.7484475210384722e-03  -1.9816953478153623e-03  1.1676214389220098e-02  8.1086428315359574e-03  1.5592833082232884e-04  -4.8447995201694252e-03  -4.0317367768318291e-02  -3.3805458304043100e-03  -3.3706336615484372e-03  1.8505791186851882e-04  2.8350084682598337e-04  -6.6684678158982075e-03  -5.9590185794375014e-04  -2.3650149702689281e-04  -1.8043145740750971e-02  2.3474411313774441e-03  -8.1534982148233653e-02  1.7589304912987450e-02  -1.4166749145789349e-03  7.6928084772225590e-03  1.8109831523533154e-02  -1.2675724521924721e-03  6.7465738884145282e-03  -1.4130710297621035e-03  -1.7424345351024269e-03  -3.0012706536715977e-02  -8.0721979966573071e-02  -4.2178626720649814e-02  -1.4078466765691683e-02  -1.1360169035909305e-03  -6.1904871625695190e-02  -2.8895798648489304e-02  -1.3931804211856261e-02  1.1197598593921561e-03  -2.5113340279948257e-03  -9.8509745747270283e-04  -1.3976861343202446e-03  -2.7713517961558048e-02  -6.0140746515392057e-04  -7.0648554694450472e-03  1.5193600236659263e-02  2.5816840278178689e-02  -3.2849347013276714e-02  -2.3062185261125204e-03  -1.6864806865793738e-03  6.6222296416080170e-03  -4.3651446453262507e-02  1.2035808349509746e-02  4.4308279457413258e-01  -2.4257356344247749e-02  -5.3230436293348733e-02  2.5706262913387012e-02  -5.7622419652755108e-02  -1.8767726923785888e-01  -5.7252090087582919e-02  9.8392397451801533e-03  -9.1015645997765710e-02  -4.7332261883679540e-02  9.0655794624736226e-03  6.7120107142989471e-01  7.3135549929058263e-01  2.0841061560943684e-03  6.6523106280143032e-02  -5.3496671876179194e-02  1.2677015025718930e-01  -4.8074396681898257e-01  -5.8954386953314238e-03  -3.7437326338398705e-02  -4.0122022871235397e-02  -2.1092670624503099e-02  -3.1949133847543032e-01  1.3621240951164243e-01  -3.3080187212353473e-01  -4.8892920583940250e-02  -2.8292715335050578e-01  -2.2463151395600608e-02  -5.2078292422335781e-01  -1.6036773368499757e-01  2.5640754497935392e-01  2.4368609594559285e-01  1.7023723614655886e-01  -3.6914830875344945e-02  -9.2064657769048069e-02  -8.2308537064139167e-02  -1.2048774653948885e-02  -3.8276171503380724e-01  -1.4570134211552621e-01  4.6640867118701287e-02  2.1838413622032343e-01  1.5881714236299210e-01  1.7542944932891619e-01  -4.2339770203388349e-01  5.1005390866752973e-02  -3.8434616381115089e-02  1.2109978924529905e-03  6.6568464943394703e-02  -1.1193473729351947e-01  9.2937469359941766e-02  -3.8288736480243967e-03  -7.2550144499437278e-03  2.4378258404185121e-01  2.5406735000369995e-01  -4.4563157324140771e-03  2.3650606620464532e-01  -7.3680407375133049e-03  2.6173826104320789e-02  -2.9774010736973422e-03  -1.7355534707310039e-02  7.9927071971716687e-04  1.7069505697813425e-01  1.4729975445470778e-01  2.2769055935545593e-03  1.9038428922980792e-02  7.3510267078616600e-03  3.0307480397175172e-02  -7.0710524488771919e-03  -9.0703630094512797e-03  -1.6692625779453367e-03  -3.7768970732944092e-03  -1.2347109184106645e-02  -3.8886190849444771e-03  -1.1098417563956631e-02  -1.3288686180341487e-02  -1.4710437796016419e-02  -1.0963154293917807e-01  2.3445036050350820e-02  1.8157409782759124e-02  1.7087663565859561e-03  -2.7991619323434871e-02  1.4797802997643698e-03  1.3630704087257712e-02  2.5197149616200875e-03  2.1411547650364801e-03  -3.2822357171766866e-03  3.8713911661343895e-04  1.0338039878470617e-04  1.0120654649048925e-03  -1.6637030858249885e-02  -2.6033000414453078e-01  3.1441244085800145e-02  7.3802156248268126e-04  8.2425967668941502e-03  1.1459004648453318e-01  -2.2192955146386334e-03  -1.5672879095730791e-01  2.5412197803757714e-02  -5.0427777289389214e-03  8.5364425662069934e-02  3.0054400449854458e-02  -2.9934009714279432e-02  -3.7816668684714574e-02  -2.2499661740513638e-01  -8.3895517526772267e-02  5.2465032089302893e-02  -7.7927412504671945e-03  2.5258171319226773e-02  -1.7789499171982570e-01  8.1920791047766801e-03  -2.3418366333260182e-01  1.9673071406238568e-01  1.6918066646804661e-02  -1.3861845552735239e-02  1.6797379446113586e-01  -3.9315332575645755e-02  7.2824739386743664e-02  1.3126151180154352e-02  -9.6483226704036952e-03  -7.0820551946515126e-02  -1.0819751519233489e-03  -2.5980704179945291e-01  -5.3085077119098094e-02  -1.1109678288932154e-03  5.8881991244333853e-02  -2.8585271393632358e-02  -2.0501969023800488e-02  3.9960663142113422e-03  7.8549385363819724e-03  2.3758795646827954e-01  -1.8666957552236477e-02  3.2164472127135919e-02  -3.8171536840496886e-03  -1.8209858471112922e-01  -8.3945365036738023e-02  -3.9763050793251736e-02  7.6756160949289484e-02  3.3261728805164701e-03  -3.2832093171987875e-01  -1.6644723131078398e-02  -2.9241231203940521e-01  2.4417228880209635e-03  -1.1373691221396941e-02  -9.7433791432463609e-03  -8.8646935351828465e-02  6.2667129943227481e-03  2.0622295226339599e-02  1.5611542275228853e-02  1.5854491653967715e-02  4.3456091940287152e-03  1.1973617633626020e-01  2.4111180229997888e-02  6.3200801861532291e-02  3.6722785947946816e-03  -5.0496554874893171e-02  -4.5001403499371311e-02  9.6053199070718701e-03  -6.6274270236469723e-01  -4.7375331492272472e-03  1.2773023290569968e-03  4.7481178647647213e-02  5.8151551835084712e-02  -1.9928953920996734e-01  -2.6276338700356916e-01  -8.7720739797567303e-05  2.8307003563359336e-02  -1.1926457803332003e-02  -2.7524258545320024e-01  -2.8290036872355699e-02  1.0887182457598550e-03  -3.8416474223464246e-02  2.0672425731463073e-03  -3.1367045208768596e-03  2.2492932973244728e-02  -3.7807547234494705e-02  -5.3691723901583555e-03  7.7879203096823287e-03  3.3654313268067039e-02  -1.3435635299427878e-02  2.8550155191505725e-02  -5.7686222658164192e-02  2.2259985607659782e-01  1.1072022188451320e-04  3.7728913313985653e-02  -1.4776348876380711e-02  5.7487387487590125e-01  1.0725707658197293e-02  3.1699946514586252e-01  3.0549097641670443e-02  -3.8180117980814027e-02  3.9700310775255265e-02  1.0666694768785179e-02  6.7077457699546870e-03  4.8790254523838103e-02  -8.1900050888479570e-03  -1.6681383344704720e-01  -1.1209711169511919e-03  -1.7794155444081517e-02  4.9696693134714753e-02  4.7943096040203755e-02  -3.8156664414283031e-02  -1.2091998548338832e-01  -1.7183305004525753e-01  2.3021173706244238e-01  -1.3398033711964236e-01  3.5940814679179200e-02  1.7756385072617365e-03  5.2009958901805967e-03  7.7338700843362043e-02  1.3659330117911164e-02  -1.1037653209361140e-01  3.4221514378989177e-03  -8.0797560042870664e-01  2.0846293896297937e-02  -1.7006371621139875e-02  -9.9123993306502595e-04  -2.8070278147015820e-02  -8.2933146554388187e-04  6.7022576193683792e-03  -2.5479960065179047e-01  -1.1185440658758972e-01  -2.7755336874134684e-01  -3.0516355507151083e-01  -3.1599759193728380e-03  -2.5815915829859187e-01  -1.2730223178908019e-02  -2.9999190507423470e-02  -1.1170937967438312e-02  4.8765424645025408e-03  1.7725031275840261e-01  4.1648902191102052e-02  2.1177644056952962e-02  -9.0821257041528075e-02  -9.3317157445360399e-02  -1.7565037738795045e-02  5.5808050898785077e-03  4.0490955718900740e-02  7.0597611454539825e-03  -3.0184395843382707e-02  1.4413965478346055e-02  4.8797270463520059e-03  3.7598464712849423e-02  4.4056392193822291e-02  4.4369461322725505e-02  2.7752811721937547e-02  -3.0286353906765606e-01  3.2406070340125152e-02  -7.2299175299413779e-02  -2.1686441885972987e-01  3.2039785033004142e-01  -1.7701345838057236e-01  7.9397982134457798e-03  -3.6119673378228662e-02  -1.1024576866763207e-01  -2.7773995784481614e-02  -2.1162500165167145e-02  8.0033357405984119e-04  -7.1498778211511183e-03  1.6321516728946078e-02  -1.0309525510073787e-02  -2.0546720437376628e-01  -1.2601684710653763e-01  3.9397105558161089e-02  -3.4005106581610989e-02  -1.7348213275046737e-02  -7.4210073846482944e-03  -3.5780893252216905e-01  -9.0824868915660495e-02  -4.1624530360977680e-03  -6.4174067990546424e-03  2.5672362454650910e-03  -2.8906447964099314e-03  7.6514992507781818e-05  2.2531043969915310e-01  1.5517474180475541e-03  -3.3854279302738777e-01  -1.9983984646331393e-01  -2.5861728943768703e-02  1.2606467415243308e-01  8.8219485444872101e-03  -7.7541227741274432e-01  -7.6505060239149434e-03  -5.0399189755396123e-01  -2.3459544652145548e-02  6.1766338474615691e-02  -4.9346143444508161e-02  -1.1650368380682963e-01  1.1039862463605214e-01  1.9986386746136488e-02  4.2676628965166432e-03  5.6820246745918502e-03  -3.8948134028722992e-02  2.6395930710645207e-02  -2.1179522416698793e-02  -7.2953965001528627e-03  -1.5134652643710905e-01  -9.9896280280100183e-04  -9.7198402491613906e-02  7.2715895902435587e-02  -2.1370716112379573e-03  -3.9276267692306868e-02  -5.3328584940633951e-02  -5.9821276676858583e-02  -6.0717599460987426e-02  3.4721929420033930e-02  -2.2775993165273364e-01  3.2968832554717033e-03  1.7903971769274243e-03  -2.7283870593536924e-01  1.9280195324353488e-02  -1.6402420454552855e-03  -1.6483177544003403e-02  2.6470684181720751e-02  2.8361793510227528e-03  9.7061045599196621e-02  -1.3091127257496962e-02  -4.2562569256762231e-03  -9.4327295365682157e-02  -9.4134617438898421e-02  -1.2278724510829135e-01  -2.4841599947459268e-03  -1.3992098812352446e-01  1.5599613325137308e-02  1.2635329871507797e-02  -6.5034415656349057e-02  2.2201354294353409e-02  -2.3550845785709079e-01  -5.6484742826228701e-03  -3.2169456802869499e-02  1.0517854524988018e-03  6.4874598312825257e-02  9.5582897273822996e-04  -2.1742817661973578e-02  -1.9255645810018502e-02  -2.7127309463062110e-01  -1.4202345960425022e-01  1.2671826308160987e-02  1.4935468796144477e-02  6.2076166537936441e-02  4.4592461567712273e-02  3.3799385996206707e-03  -2.5579468097518109e-03  7.7624778145975431e-04  -2.6090806171539960e-01  4.9588598569043334e-03  2.7243286914919742e-03  3.3100674088321087e-03  7.7371761708136755e-02  4.8944511051786108e-03  -9.2728778246344327e-04  6.3031677863361071e-02  6.7649900925659798e-02  -5.5158104075691369e-02  1.3281683319163171e-01  -3.8403965412426314e-02  1.6575578717630942e-04  -1.3279529385138895e-02  -7.5885796491503427e-02  2.1293869953795150e-02  5.9553831897658574e-03  4.6818359260339115e-03  -2.2646951233910073e-01  2.2958170784274749e-02  -8.3584350292171428e-02  7.5279485567013380e-04  3.6364001594695419e-03  -7.8506694364094340e-03  -1.7165188891177718e-01  1.7041298796252444e-01  9.3271069801428852e-04  1.9697002704878876e-02  -9.7811571227020444e-02  1.4351764017288854e-01  1.7162935403274206e-03  1.7689907772784053e-01  -5.9889371169377439e-03  -7.1035751562790050e-01  1.5076468583551683e-01  6.1153624005421950e-03  -3.7535181415881958e-04  3.5939180607728913e-03  -1.9690330251758981e-02  -1.7566389007766081e-02  -9.9143721504401289e-02  2.1228761353220119e-02  1.3701554913129665e-01  -4.3706892607469940e-03  2.4023964693568017e-02  9.8067331580450404e-03  7.6919668605316238e-02  2.0105393165483776e-01  4.0772087885377457e-02  7.7649950664314377e-02  -1.9474655092379128e-01  2.5510530682002909e-02  -3.1706516642029370e-01  4.1068317821649093e-03  -5.6727896561994298e-02  1.7530011599050696e-02  6.7836710088299546e-04  -1.2350394129251541e-02  2.2627326733341054e-03  -1.8188331547024714e-01  -4.2270478773579578e-01  -3.9343397293048241e-02  1.5246679042648658e-03  -1.9153930143429782e-01  -1.2110102435392185e-01  -3.0549360241189025e-02  1.7117635894254250e-02  -8.4558676850525455e-02  -3.5127830076729830e-02  4.5238147549397558e-03  2.8679039143596034e-03  -1.0938028176775472e-02  2.1343552017234514e-02  -6.3750237100394236e-02  3.2501693187002113e-02  -1.3950885347404585e-01  -2.4660793827687617e-02  -2.0136289707092081e-02  -1.7595376306404124e-02  1.6090693339953714e-02  -3.5518306387187791e-04  -2.4372263136813394e-03  1.7598630895829248e-05  -3.7202523494709094e-01  -7.6651015501146058e-01  7.4902501714175757e-02  6.7345065508442256e-02  -2.5600351364088814e-01  -1.1279438931647157e-01  -2.4877485867796151e-01  -1.2223914209517700e-01  7.2658164632038655e-04  -5.1090774868891786e-01  -4.6042398229471206e-03  -3.2796413343896490e-03  8.5535322995736726e-02  4.4831132373239033e-02  6.0911869927664550e-02  -7.4747168245289236e-02  1.2715610750856428e-02  -5.2312312008012951e-03  -1.4124341875334144e-02  2.2819075300373817e-01  2.2939177690574998e-02  6.2198509932046367e-04  -5.7131158191744014e-03  -3.8195248617065190e-03  -2.4443272543877323e-04  3.1242058499402403e-04  2.3029195391161533e-03  -7.8162680728328798e-03  -3.0026122985480325e-02  2.1313021868563278e-01  -4.0857869558359836e-02  1.0140366706495647e-01  -1.6759451328442990e-02  -2.9560092285903300e-01  -4.2828940321090650e-02  -5.8997978368080732e-02  2.4731001977338759e-03  -1.7932919870390612e-01  -3.0944786677886693e-02  2.7188480275612886e-01  -4.5760225071786215e-04  1.8309902664848485e-02  2.4972552006748217e-01  -1.1096681702464425e-01  -2.2863801702996320e-01  2.2291924071355756e-01  3.1811592138151590e-01  -2.3695689490528311e-02  -5.3149726754393431e-02  4.3414362255567288e-02  2.8293277277347034e-01  -2.7717918240562914e-02  9.9480884309536919e-03  -1.0072196139096508e-01  8.3422551496080530e-04  1.8008494366495483e-02  -2.6361185596590404e-02  1.0495435293918495e-02  -7.6967077419836188e-02  3.5247057541549651e-02  -4.4889286831565345e-03  -5.6166894580948645e-02  2.1080470442508308e-02  4.3403801922497452e-03  6.6599731966876909e-03  2.1630069547831099e-01  -3.6170767423928205e-02  -4.9143785404121294e-02  1.1338598461254443e-02  1.2369031063749293e-02  1.3637226073766592e-02  2.2882380168039720e-03  -5.0645375187831965e-02  -1.1072191769409094e-01  6.4032221197941157e-03  -2.9001021425271345e-01  -3.7483715172861976e-01  2.3706783333230220e-02  -1.2669323980202533e-02  -2.7023535707283763e-01  -2.0397242848652342e-02  3.6583748890039836e-01  -4.3544719672302789e-03  -4.9485610327418640e-02  -1.6872542663182839e-02  2.4994503473856300e-01  -1.0907430912308114e-02  3.0384537258212916e-02  -1.0087295126742611e-04  -1.2607316916213800e-02  1.2780593049027594e-02  -2.9136186937780728e-01  5.2752905637676359e-02  1.2219380839202770e-02  -9.1389850249833940e-02  -2.8883212222197746e-01  -3.6784262023728767e-02  -3.6167173626232216e-02  -2.2432559542578546e-02  -1.3846519495523391e-01  7.5211266733321722e-02  -3.6818681508090489e-01  2.3962377824003483e-03  -3.0818276975385084e-02  -1.7191756519355915e-02  -2.4054617863738439e-03  9.8837002245171276e-03  7.7361540023181130e-03  1.1566574321157019e-03  -1.8485784700425282e-02  -7.4365133623965934e-02  1.8275395995419087e-03  5.3972878215314875e-03  1.0322836518638634e-03  -8.3136282933653868e-02  -7.9381082515773055e-02  9.5974553855337954e-03  8.1172192685176336e-04  -7.8541667502347645e-02  -3.8074955133174238e-01  -1.2848478612026914e-02  2.1981206090035295e-02  2.5956109104359717e-02  6.2878586118643415e-02  -4.7561937731508564e-03  2.4253312342836612e-03  -1.7434174280560034e-02  4.5280978228520712e-03  -4.0362315120876797e-02  2.2193330641945413e-01  1.1438623495391837e-02  -3.8687480939394642e-02  -1.9077592011473986e-02  -2.0673266339758510e-03  -1.2292823279473300e-02  2.4601857239162181e-01  -1.1483713491932484e-02  -2.3567956144300251e-01  -6.7208438786231905e-01  7.2325367368682017e-02  -1.7765211771150827e-02  -7.0927198332996280e-03  -5.3191664697707064e-01  -2.5442377698020768e-02  1.1805489654463934e-01  -9.5525633513587782e-02  -1.5708239760347111e-02  -7.3037869253809312e-03  -4.8372592849616203e-02  -4.4992807925701345e-02  -2.3622681228676071e-02  9.9697408000169407e-02  1.0278313457001967e-03  -1.9903781522327690e-03  -7.3649358458157945e-03  -4.6388329469204724e-04  4.0350844101697154e-02  3.4504451857559114e-03  -2.4886860978551906e-01  -2.3830051256821219e-03  3.2703193745912906e-02  -6.3340964715791953e-02  -3.8036318305086594e-02  -3.2153265038035894e-01  -4.5636343337197155e-03  4.0588766862719927e-03  1.1417208556657753e-02  -1.1696963860041515e-02  -3.2115565535288625e-03  4.0698023205554459e-03  -5.9713810068071057e-03  2.2726519775255680e-01  -6.5725457705235940e-02  3.7895979270377529e-02  4.9240561919687790e-03  -7.1629722072359949e-03  2.1230153987064735e-04  2.4309238617210117e-02  -2.7786645021188594e-01  4.8559962528533576e-02  -1.1153321234877871e-02  6.2292342286003999e-02  -1.4858469942523223e-01  7.8471499626215135e-02  -1.1553237173530146e-02  5.7488965327915899e-02  2.3527200450405125e-01  8.2062858466570507e-02  -4.8886265681472724e-02  1.9566319817812969e-02  1.5659314048549838e-02  -7.9700171870121933e-02  -8.3995835635283372e-03  6.7495029942431775e-03  -2.5911025864112938e-02  -6.4748632385664251e-02  5.8950615462682520e-03  8.6887641444163971e-03  -2.8958623028006447e-01  3.7976236135295008e-02  1.2974751407464765e-02  -4.1672078313868804e-01  1.6599460752811993e-02  2.1961427287689522e-03  -2.6576140111589069e-02  -7.8627998842554017e-03  3.3257300436094234e-02  -5.3100343299993802e-01  1.7062194245489005e-03  -1.5429493297906557e-01  -2.1529469268704471e-02  -7.0716140754262221e-03  -5.2851408246328453e-03  4.2873202838762489e-02  -5.1774040563792728e-03  1.5112919465283562e-03  -4.2836622423585602e-01  -5.9697245606755722e-01  2.6569011855917163e-01  2.5359607476270585e-02  -4.8512057520266182e-02  5.4095192978810590e-03  -4.2203740200997583e-02  -5.9355835969387080e-02  -6.6728845953581681e-02  -2.8426910324969950e-02  9.6942456672624820e-03  -5.3288891012180588e-02  -8.2221116896224501e-04  -1.0975116783125526e-01  2.0253599964112151e-01  7.7155559193793338e-03  1.2745324447363929e-02  -1.1448101200899855e-01  2.5134322395493791e-02  3.9