<?xml version="1.0"?>
<VTKFile type="UnstructuredGrid"  version="0.1"  >
<UnstructuredGrid>
<Piece  NumberOfPoints="4372" NumberOfCells="8502">
<Points>
<DataArray  type="Float64"  NumberOfComponents="3"  format="ascii">-2 2 0  0 2 0  0 -2 0  -2 -2 0  -1.949999999999792 2 0  -1.899999999999584 2 0  -1.849999999999375 2 0  -1.799999999999167 2 0  -1.749999999999002 2 0  -1.699999999999306 2 0  -1.649999999999653 2 0  -1.6 2 0  -1.550000000000346 2 0  -1.500000000000693 2 0  -1.45000000000104 2 0  -1.400000000001387 2 0  -1.350000000001733 2 0  -1.30000000000208 2 0  -1.250000000002427 2 0  -1.200000000002774 2 0  -1.150000000003121 2 0  -1.100000000003467 2 0  -1.050000000003814 2 0  -1.000000000004117 2 0  -0.9500000000039528 2 0  -0.9000000000037447 2 0  -0.8500000000035368 2 0  -0.8000000000033287 2 0  -0.7500000000031206 2 0  -0.7000000000029127 2 0  -0.6500000000027044 2 0  -0.6000000000024965 2 0  -0.5500000000022884 2 0  -0.5000000000020806 2 0  -0.4500000000018725 2 0  -0.4000000000016644 2 0  -0.3500000000014563 2 0  -0.3000000000012482 2 0  -0.2500000000010403 2 0  -0.200000000000832 2 0  -0.1500000000006243 2 0  -0.100000000000416 2 0  -0.0500000000002081 2 0  0 1.950000000000139 0  0 1.900000000000277 0  0 1.850000000000416 0  0 1.800000000000555 0  0 1.750000000000693 0  0 1.700000000000832 0  0 1.650000000000971 0  0 1.60000000000111 0  0 1.550000000001248 0  0 1.500000000001387 0  0 1.450000000001526 0  0 1.400000000001664 0  0 1.350000000001803 0  0 1.300000000001942 0  0 1.250000000002081 0  0 1.200000000002219 0  0 1.150000000002358 0  0 1.100000000002496 0  0 1.050000000002635 0  0 1.000000000002774 0  0 0.9500000000029125 0  0 0.9000000000030515 0  0 0.8500000000031902 0  0 0.8000000000033287 0  0 0.7500000000034674 0  0 0.7000000000036062 0  0 0.6500000000037449 0  0 0.6000000000038836 0  0 0.5500000000040224 0  0 0.5000000000041611 0  0 0.4500000000042998 0  0 0.4000000000044384 0  0 0.3500000000045771 0  0 0.3000000000047156 0  0 0.2500000000048543 0  0 0.2000000000049929 0  0 0.1500000000051318 0  0 0.1000000000052705 0  0 0.05000000000540905 0  0 5.504485756091526e-12 0  0 -0.04999999999459082 0  0 -0.09999999999472964 0  0 -0.149999999994868 0  0 -0.1999999999950068 0  0 -0.2499999999951457 0  0 -0.299999999995284 0  0 -0.3499999999954229 0  0 -0.3999999999955617 0  0 -0.4499999999957001 0  0 -0.4999999999958389 0  0 -0.5499999999959777 0  0 -0.5999999999961165 0  0 -0.6499999999962549 0  0 -0.6999999999963937 0  0 -0.7499999999965326 0  0 -0.7999999999966709 0  0 -0.8499999999968098 0  0 -0.8999999999969486 0  0 -0.949999999997087 0  0 -0.9999999999972258 0  0 -1.049999999997365 0  0 -1.099999999997503 0  0 -1.149999999997642 0  0 -1.199999999997781 0  0 -1.249999999997919 0  0 -1.299999999998058 0  0 -1.349999999998198 0  0 -1.399999999998336 0  0 -1.449999999998474 0  0 -1.499999999998613 0  0 -1.549999999998751 0  0 -1.599999999998891 0  0 -1.64999999999903 0  0 -1.699999999999168 0  0 -1.749999999999306 0  0 -1.799999999999445 0  0 -1.849999999999584 0  0 -1.899999999999723 0  0 -1.949999999999862 0  -0.04999999999990573 -2 0  -0.0999999999997993 -2 0  -0.1499999999997056 -2 0  -0.1999999999996293 -2 0  -0.2499999999995475 -2 0  -0.2999999999994072 -2 0  -0.3499999999992615 -2 0  -0.3999999999991157 -2 0  -0.44999999999897 -2 0  -0.4999999999988242 -2 0  -0.5499999999986784 -2 0  -0.5999999999985328 -2 0  -0.649999999998387 -2 0  -0.6999999999982413 -2 0  -0.7499999999980955 -2 0  -0.7999999999979498 -2 0  -0.8499999999978042 -2 0  -0.8999999999976585 -2 0  -0.9499999999975127 -2 0  -0.9999999999973885 -2 0  -1.049999999997498 -2 0  -1.09999999999763 -2 0  -1.149999999997762 -2 0  -1.199999999997894 -2 0  -1.249999999998025 -2 0  -1.299999999998157 -2 0  -1.349999999998289 -2 0  -1.39999999999842 -2 0  -1.449999999998552 -2 0  -1.499999999998683 -2 0  -1.549999999998815 -2 0  -1.599999999998947 -2 0  -1.649999999999078 -2 0  -1.69999999999921 -2 0  -1.749999999999342 -2 0  -1.799999999999474 -2 0  -1.849999999999605 -2 0  -1.899999999999737 -2 0  -1.949999999999869 -2 0  -2 -1.950000000000139 0  -2 -1.900000000000277 0  -2 -1.850000000000416 0  -2 -1.800000000000555 0  -2 -1.750000000000693 0  -2 -1.700000000000832 0  -2 -1.650000000000971 0  -2 -1.60000000000111 0  -2 -1.550000000001248 0  -2 -1.500000000001387 0  -2 -1.450000000001526 0  -2 -1.400000000001664 0  -2 -1.350000000001803 0  -2 -1.300000000001942 0  -2 -1.250000000002081 0  -2 -1.200000000002219 0  -2 -1.150000000002358 0  -2 -1.100000000002496 0  -2 -1.050000000002635 0  -2 -1.000000000002774 0  -2 -0.9500000000029125 0  -2 -0.9000000000030515 0  -2 -0.8500000000031902 0  -2 -0.8000000000033287 0  -2 -0.7500000000034674 0  -2 -0.7000000000036062 0  -2 -0.6500000000037449 0  -2 -0.6000000000038836 0  -2 -0.5500000000040224 0  -2 -0.5000000000041611 0  -2 -0.4500000000042998 0  -2 -0.4000000000044384 0  -2 -0.3500000000045771 0  -2 -0.3000000000047156 0  -2 -0.2500000000048543 0  -2 -0.2000000000049929 0  -2 -0.1500000000051318 0  -2 -0.1000000000052705 0  -2 -0.05000000000540905 0  -2 -5.504485756091526e-12 0  -2 0.04999999999459082 0  -2 0.09999999999472964 0  -2 0.149999999994868 0  -2 0.1999999999950068 0  -2 0.2499999999951457 0  -2 0.299999999995284 0  -2 0.3499999999954229 0  -2 0.3999999999955617 0  -2 0.4499999999957001 0  -2 0.4999999999958389 0  -2 0.5499999999959777 0  -2 0.5999999999961165 0  -2 0.6499999999962549 0  -2 0.6999999999963937 0  -2 0.7499999999965326 0  -2 0.7999999999966709 0  -2 0.8499999999968098 0  -2 0.8999999999969486 0  -2 0.949999999997087 0  -2 0.9999999999972258 0  -2 1.049999999997365 0  -2 1.099999999997503 0  -2 1.149999999997642 0  -2 1.199999999997781 0  -2 1.249999999997919 0  -2 1.299999999998058 0  -2 1.349999999998198 0  -2 1.399999999998336 0  -2 1.449999999998474 0  -2 1.499999999998613 0  -2 1.549999999998751 0  -2 1.599999999998891 0  -2 1.64999999999903 0  -2 1.699999999999168 0  -2 1.749999999999306 0  -2 1.799999999999445 0  -2 1.849999999999584 0  -2 1.899999999999723 0  -2 1.949999999999862 0  -0.9991019297010011 -0.3216894116769606 0  -1.001123860021573 0.7747860510049681 0  -1.157001840564423 -1.161067247012082 0  -1.338027560051535 1.335779534439809 0  -0.6597222222209854 1.340277777778947 0  -0.6585505322915344 0.2210104638722434 0  -1.342670381551713 0.2273264508688188 0  -0.6282204758073073 -0.8120080430170664 0  -0.584236517600881 -1.424312893620663 0  -1.444216308265114 -0.6762220291217811 0  -0.5052068177397626 0.8617966625436217 0  -1.495725541732084 0.8726406067560636 0  -0.5012956875285356 -0.2537377131698332 0  -1.505964779037762 -1.506864731248248 0  -1.533439101629034 -0.2141932377592857 0  -0.9980909254944228 -1.563025322244478 0  -1.573871097078973 -1.076090339205781 0  -0.9938363905916023 1.574658399668859 0  -1.034823301857025 -0.7463046737786232 0  -1.613643420611705 1.613643420611667 0  -0.3789826634893113 1.622833641383097 0  -0.9969623469406674 0.06224895986291776 0  -0.9977570821219073 1.152964911765466 0  -0.3827586671415756 0.4981078379584384 0  -1.617241332858342 0.4981078379584687 0  -0.3735162279179589 -1.10055932464888 0  -0.9514697352838486 0.4195344991084976 0  -0.3671724871528862 -0.5890291676826473 0  -0.8024708669961921 -1.130631989953667 0  -0.3498086031259764 1.176326426441 0  -1.654591699695181 1.175475929606857 0  -0.3418462529951587 0.05839036814553086 0  -1.276352049535552 0.5646214960700082 0  -0.3455726757630372 -1.654274000872155 0  -1.662000930981631 0.09800841401402562 0  -0.7326605900058469 -0.5029780286614124 0  -0.6815317218188973 0.6015493889244842 0  -1.294915051768271 1.68349586060536 0  -0.6978609120161386 1.682418596511037 0  -1.69042813419972 -0.4820149800903958 0  -0.7177378365368432 -1.691938564923942 0  -1.295041566734205 -0.3964989221993158 0  -1.257425593209587 -1.693594420665469 0  -1.246383246782414 -0.1148360514526407 0  -0.7362449271051545 -0.05964032805167522 0  -1.707983706106591 -0.8099422821034401 0  -0.7716224277305496 0.9720234774828133 0  -1.275827556233888 1.059370830779667 0  -1.709731219610966 -1.713515019749574 0  -0.283604077223767 -1.378462113197051 0  -1.331628086330126 -0.9256871504417986 0  -1.718803648671523 -1.313287096736098 0  -1.237157326776588 -1.417624750871973 0  -0.2754377852160807 -0.8405670548436512 0  -0.2604914310470714 0.745077019249353 0  -1.729633983752603 0.7365041208839631 0  -0.2591591556650803 -0.3445128723686334 0  -0.2497705497594995 0.2862378673199174 0  -0.2571319926197782 1.401471300128245 0  -1.750457518478978 1.404891698644917 0  -0.8313391195977098 -1.383947161511035 0  -1.24247470005791 0.8083576983762071 0  -1.75762809210058 -0.121394575294928 0  -1.436009639427774 -1.277692839795198 0  -0.9951285024698884 -0.9801850598617781 0  -0.5860531098993602 1.102916873865959 0  -1.107154037528234 1.367740498542844 0  -1.765353655027761 0.3139359895551974 0  -0.239693234576285 0.9675382248711792 0  -1.762311524625569 0.9715314837693784 0  -1.453060458314344 0.01668426334404738 0  -1.118216683883963 0.2510494134873997 0  -1.487314750788142 -1.768895281943666 0  -0.775695807447912 -0.2851187916602083 0  -1.775021992875828 1.773058151300929 0  -0.2244440016626344 1.771853493176412 0  -0.8797519944267721 1.389822301404418 0  -1.220958717521525 -0.6178523500889427 0  -0.59343770640056 -1.180817576357191 0  -0.9262618789157869 -1.776942446977449 0  -0.2205428235968764 -0.1260615883490472 0  -1.10972339161439 1.777127575560661 0  -0.9394997616645768 -0.5365790009321401 0  -0.812081892264416 -0.7153463049796221 0  -1.783917055200667 -1.008716696077253 0  -0.515263853692324 -1.788606832309386 0  -0.8883686379713935 1.780240085569055 0  -1.545545177082075 0.2916466799431231 0  -1.490071498349099 1.777107893879804 0  -0.5133806951054479 1.777756514587614 0  -1.042544744196485 -1.335739934857762 0  -0.8641039527440014 0.2249999999994 0  -1.475046450324973 0.6546028915744984 0  -1.529677928948796 1.412892352790367 0  -0.4613578028330296 1.41527900122371 0  -1.790928681625402 -1.
[...]
<PointData  Scalars="f_1087-1"> 
<DataArray  type="Float64"  Name="f_1087-1"  format="ascii">-3.4411504150952152e-05  -1.9803175353262197e-03  -9.9882456879300099e-02  -2.0363414972766280e-03  -3.4587772869451973e-04  1.0455627791048977e-04  -5.5224383476246836e-05  -4.4813111293639423e-04  -4.8474687041744416e-05  -1.5144255514831805e-04  -1.4384847126976933e-04  -3.8015246479679082e-04  5.2299562827056718e-05  -2.4353783635420724e-04  1.5467478561894635e-04  -1.4751121734473001e-05  -1.3503072062338497e-03  -1.3149600508264904e-03  -1.9126843677190822e-03  -3.9344807621203377e-04  4.6119875657724962e-03  5.3629625348873972e-03  -4.6409003981146392e-04  1.3431698714251009e-04  -1.0259152828647363e-03  -1.0321336201306527e-03  -1.0797557453621355e-03  -8.2542158345743244e-04  -7.3243599200245634e-04  1.4471601859617805e-03  -8.8550038070828662e-04  -2.3375398455940492e-03  -3.1406477626093610e-03  1.7160592863561461e-04  -2.1090129662707565e-03  -1.5466332257192098e-03  -1.5310002892934182e-03  -1.6534713845070496e-03  -2.3282878841613753e-03  -8.6266706852764939e-04  -1.6036541179665690e-03  -2.0561691571665828e-03  -2.3331220032251684e-03  -1.6589969603035676e-03  -1.1697315404696831e-03  -3.6804792130920843e-03  -8.9618769672494929e-03  -1.0654749853593775e-02  4.3951444437707009e-03  -2.5298924864479072e-02  -4.3437419393082301e-03  -4.7422171279415861e-03  -5.3253446509852109e-05  -6.2967633521771350e-03  8.7494386224377316e-03  -2.2375915254230468e-03  -5.0616795486690590e-02  9.7013418648378316e-04  -1.2619459038939159e-02  -8.5494341826518726e-03  -1.1594039489608177e-02  2.0971035285440418e-03  -1.4456452135389855e-04  1.5386913046343079e-02  -3.0017286250368018e-03  -5.1124659792925478e-02  -3.4385777975037481e-02  -3.1676642956235519e-02  -2.3233561522882126e-02  1.3545290874131871e-01  1.5995354607085105e-01  3.8558969149388569e-02  -1.0635409955873795e-01  -1.4825866235908744e-03  -1.8314478372879164e-02  1.6678862132846139e-03  -8.7857618044711039e-02  6.1290463620700258e-02  -4.1526151809112832e-01  -7.6908076959857158e-02  -1.1751530937524117e-02  -3.0501279034838760e-03  8.5618558369112294e-02  5.7313610327652600e-02  -3.1649476133962240e-02  2.3915514572485158e-01  1.0634054208660551e-01  1.5084119869176216e-01  4.5016784542954033e-02  -6.8009683605923049e-02  -1.0876641420295527e-01  9.9191589000557134e-02  -1.4182866478818174e-01  -5.5685267820246111e-02  -3.7246325881357623e-02  1.4584411427324778e-01  -1.3658301292352803e-02  1.3402704611775496e-01  -8.3675222920050370e-04  7.3510949683834703e-02  -6.7136358606955451e-02  6.9991926268694549e-02  1.5151242592461658e-03  9.3114412341626044e-03  2.9787072093595690e-01  -2.7787927404163150e-03  9.1051900996384110e-04  9.4384662873133046e-02  2.5587578675576683e-01  3.1946271654823929e-02  3.9458984026008836e-02  -1.1456284951247215e-03  1.4405479929244441e-02  5.6234385582147481e-02  3.8105522428798343e-03  6.1922030561837064e-04  1.3680645540010553e-01  -2.0564113308301598e-02  6.3038739078398953e-01  -1.4145933408583350e-01  1.0741316645425665e-02  -6.2112366523109280e-02  -1.4549927888304565e-01  9.8205705797293364e-03  -5.5267939405149527e-02  1.0978815996380051e-02  1.4354749966196805e-02  2.3148359399303883e-01  5.8764440299537668e-01  3.1558561079122355e-01  8.1412606425307066e-02  8.1358183314451764e-03  4.4059880806423612e-01  2.0383263056252104e-01  1.0862947651035454e-01  -2.3553969293635915e-02  2.1319388624595675e-02  4.0467247584530686e-02  -6.8483687073819417e-03  9.3169345417926250e-02  2.8789446728122205e-02  -3.9163783547733484e-02  -3.6984343408111360e-02  -5.0993112959186515e-02  1.1113587676573745e-01  1.9942839365304346e-02  1.2328467217276075e-03  -2.7486298040769595e-02  9.8302051248771269e-02  -6.6885728163462888e-02  2.5612413542328583e-01  -1.4620175836764987e-01  1.2909835407538667e-01  -1.7677592477685267e-01  7.3719112137285214e-02  1.4844740868261180e-01  -2.0812881196455008e-01  -3.1689817280526966e-01  1.7120754107210467e-01  -7.5084010776308580e-02  -2.6929477514989735e-03  -1.5659325539771321e-01  -1.5750244526537047e-01  -1.5323573151013979e-03  -1.3891063532400993e-01  9.8050697261297864e-02  -2.5042310242012938e-01  -5.7183609640050384e-02  -1.3486746364468621e-02  5.8782009178113201e-02  4.9881752159455693e-02  -7.2553655409527795e-02  1.4402832835939675e-01  -4.3046532128351089e-01  1.3034305872474197e-01  6.7225413583271887e-02  3.1979081507407370e-01  -1.5685851602543233e-01  -2.0608716997489240e-01  9.6023032644735107e-02  -3.4079172451831841e-01  -3.4114421453935911e-01  -1.7565494032232359e-01  3.9879690128822191e-02  -2.6312596099575879e-02  -2.3173208531256571e-02  3.5071292613975211e-03  1.4023912125822069e-01  4.6724545066791634e-02  -9.3351282127928897e-02  -2.8169667954781485e-01  -1.7610556731105262e-01  -1.8624044803270734e-01  1.4023537729049995e-01  -4.5490358584172760e-02  -2.3591817858258503e-02  -1.2448518248297448e-03  -6.5323289217458239e-02  -3.1026725181118247e-02  -3.2370464040196917e-02  -4.6680798057265331e-04  7.3443213889537364e-03  -1.5917692454699356e-01  -1.6426928967775287e-01  1.0263342684469806e-03  -1.5410486253535427e-01  4.1724659464660412e-03  -1.7110271234219987e-02  -1.3162201790128256e-02  -3.8133369265628006e-02  9.7619402416177382e-04  -6.2625742092433101e-03  -1.1861871773397203e-01  -6.0347956209987313e-04  -4.0914712010392644e-03  -6.6046694264346615e-03  1.6409501908243293e-02  -2.6792806126476252e-02  -1.6438109709876907e-02  1.5346720884414700e-03  -1.5239676514437386e-03  -8.8398025351322032e-03  -4.6692837197974662e-05  -5.7819207465834828e-03  -1.4356747639995369e-03  -1.5979722896104064e-03  -4.1864658960848178e-04  -4.5490638479234059e-03  -3.1456901352884406e-03  -2.3712252104737888e-03  -1.3432673967775448e-03  -2.5632189681562870e-04  6.6888180493240865e-03  -2.7604702646262785e-04  -4.9719880686381840e-04  -3.4454465958010409e-04  -5.4876744312197442e-05  -1.1290205925209100e-05  -2.0592778226265356e-04  -4.1989094135007430e-04  1.2763120780892775e-01  -3.0790514573267678e-02  1.3883241220787146e-03  -8.0367683822225363e-03  2.0729088626352976e-02  -1.1649498475133581e-01  2.6101509190127339e-02  -7.7670904438001148e-02  6.0802008891018493e-02  -2.5443751277010618e-01  -3.1133059112990906e-02  -3.9273931624950048e-02  8.1813543240151138e-02  9.9600234271516458e-04  -2.6992892122371447e-02  -1.6176891095137552e-01  -1.7034031033606309e-03  -5.0373426183908439e-03  1.3916581822997612e-01  9.4243693677796316e-03  1.3723535870497128e-02  -3.2472894546436121e-01  -5.9539616422651202e-03  8.0005920517688886e-03  -1.5971388146930721e-01  8.7503058146090662e-02  -8.2908533375458532e-02  -1.3415130711128107e-01  6.0385748693962696e-02  -3.5784781108174665e-02  -2.1759356717112779e-02  -1.3331571717233773e-02  -6.8896399650738765e-02  8.6610423536158752e-03  -4.8383077514815409e-02  -1.0871362225417175e-01  3.0719670499687814e-03  -1.0430889895826777e-03  -2.0757870221482125e-03  -3.4319236545962017e-01  7.3917577470335005e-02  -4.0126581498595965e-02  -2.0004154523998077e-02  1.3099301313440177e-02  6.7448854234155614e-02  -8.2151045764136451e-03  2.5918285332500179e-02  -2.2588051862439534e-02  2.2400054350624565e-01  6.7708318245607260e-02  2.4369494741887759e-01  -1.3745603932766851e-01  -1.0667741685900697e-01  1.8340260073018300e-03  -4.8781620079637628e-02  -1.0689073988902349e-02  -1.1834336281672575e-01  -1.9256004290560076e-02  -7.3642725782771144e-03  -1.1443792468226904e-03  3.9663059513699084e-01  -5.4871993895466029e-02  -4.1086767895303036e-02  -8.4481479638551113e-02  1.2999679620305157e-01  -5.5023249985829081e-02  -2.6796901228634150e-03  1.4444823041076121e-01  3.1209477771885811e-03  -1.0568875358229213e-04  -1.5120523287252213e-01  -2.1696132958213266e-03  2.7807051403673588e-01  1.5420609461988269e-01  -1.5051674098938927e-04  -6.2547117050728166e-03  -1.4627000102326600e-02  1.6749549079095735e-01  1.0734329085711006e-01  -1.9802257442045204e-03  7.9381155924248686e-02  2.4321598552918926e-04  3.8338828880474483e-03  -2.0026389055314592e-01  -3.0777660981426640e-02  4.3218984525729753e-02  -2.1755660179156398e-03  -3.5848311093244406e-02  -1.0111874915492065e-03  -5.9775506345057195e-03  1.3826892809870017e-01  -3.1364673199180082e-01  -9.7214029039111548e-04  2.3394807869632030e-02  -3.5557952792410072e-02  -7.9095514061422428e-02  -6.9401017025455891e-03  -1.1475522130757404e-01  -3.6772221514625322e-02  4.8375986470688692e-02  -1.6543888814994931e-01  -1.2353113891137976e-01  -6.4540438789482957e-03  -4.3920068791976553e-02  -2.4410049871709482e-02  3.6547535175162071e-03  6.2477916989073156e-03  -1.5731510359616774e-02  -2.4601038057142988e-01  -1.5641707760791937e-01  2.3186388324704421e-01  1.8589466934718669e-03  1.5303594765697426e-01  -3.8485740406917057e-01  -2.1812059354499286e-01  -3.5363158177995860e-02  -4.2722536530156192e-03  -8.9083602409602645e-03  2.0476079425711231e-02  -1.4560480746484067e-01  2.0735820385210363e-01  -3.4756782236678805e-03  1.7500017001291113e-01  -3.3755902589350323e-02  6.4854723866680161e-02  3.2844839001713325e-02  -1.4640980842489168e-02  -7.6515823105428491e-04  -4.9790560113657442e-03  1.8121660048929975e-01  3.2957007697611440e-01  1.9942138797958106e-01  1.9561619526995216e-01  1.2555139479645736e-02  1.8813741512474079e-02  -9.0619581869684912e-02  -4.8035027525762879e-02  -1.3647785596809067e-03  -1.3556575187514347e-03  -3.8757473420664124e-01  -4.2248225985223563e-02  -4.1073343103274415e-03  1.5322009531828881e-01  3.3355819084486593e-01  2.0849413461576774e-02  -1.5685237529238106e-03  -3.2998650861264509e-02  -2.8781409360201420e-03  -1.1394932912672016e-01  -6.3396587975145580e-02  -8.8091073854201056e-03  -4.8826453732554134e-02  -3.5752739339235388e-02  -3.2748024324462388e-02  -1.7008025163798543e-01  2.1015960100618650e-01  -1.6388053491300431e-01  1.3225706398572759e-01  1.5875312764268429e-03  -1.1552783112650972e-01  2.6258690341353569e-01  -1.4851913432812985e-01  2.6961108605862522e-01  1.9013053858955689e-01  -1.4481920314787579e-02  1.4642841740716628e-01  8.3846046939647912e-05  -2.9901150928265952e-04  -2.1451855937848048e-02  -4.1089632902487898e-02  -1.4934880884240595e-01  -3.2483350467006830e-03  -8.3212200911545145e-02  -2.1585169716668712e-01  6.4149701273553128e-03  3.3098745849498831e-02  2.0073829074896302e-01  1.8720156610656852e-01  -2.1877597230548853e-02  -9.2143094028137806e-02  1.4484568673381699e-03  -1.1700700591253128e-03  2.9037329008519417e-04  -4.3388136570288272e-01  -5.2639576642077583e-04  2.4231568655555685e-01  -6.4465915741788171e-03  1.5627432996003154e-01  -8.2076353214871667e-02  -8.6432302866295760e-03  1.6880924964074540e-01  -3.0277494646350364e-02  1.1058997272496594e-01  1.5490573914136736e-02  -5.0403821681640815e-02  -1.8553085139918102e-01  -7.1878535085212664e-02  -3.3985838314867528e-01  -1.4330063714681318e-02  -1.9537186137978625e-03  -9.3191921269733836e-03  9.4548473970052282e-02  -8.9835479300211345e-03  8.4828876386970897e-03  -1.3883685358861003e-03  1.2189839573719019e-01  1.9727863137241362e-02  1.3666176215138620e-01  -3.2788635104364035e-02  1.3530310577904341e-03  3.4825099633714246e-02  -6.2925614535155577e-02  -6.5180697363419873e-02  -2.1573751529341412e-01  -1.5609281278970383e-01  2.3765031759775002e-01  -7.2327037066211896e-03  -2.2222820788011469e-06  2.1042815692784420e-01  -9.5822918268829896e-02  -1.2766899789534773e-02  -3.1738681048322850e-04  -5.3603110641777217e-03  1.8841191634309709e-02  -3.3594462392229751e-01  1.8471866531973007e-02  3.5198586547398103e-02  -1.2380302276328858e-02  -3.0684890887176543e-02  -4.2678587058438029e-03  -7.3325558549397641e-03  4.4920762003270984e-02  -9.5494680597547288e-02  -6.4234562737458631e-02  1.5681848923118830e-01  -4.9903962182183015e-02  1.2975589904130988e-02  2.5585520499564252e-02  4.4322396816890292e-02  -6.3041193267774576e-02  -3.8208294391716843e-02  -6.3154706259046275e-04  6.1150469836706196e-02  -2.7261742926212862e-03  1.8314832955173818e-01  -2.2296727266535449e-03  -3.9398572089141819e-02  -4.5409171948541840e-02  -5.0692083648767580e-02  2.2957024639100813e-02  -5.3930445500036169e-03  4.8655879436024642e-04  -1.0998204818776737e-04  1.4827278527649709e-01  -1.4009980560981379e-03  -4.5823138025359329e-04  -2.2386266762328176e-03  -1.7397461557107122e-01  -1.2942774934371589e-03  -2.4503745647709006e-03  -4.9414258146322505e-02  -8.0388191250768765e-02  -6.6905432792290359e-02  1.2966091406271904e-01  -5.1633502015489337e-02  -5.1931445039319837e-05  -6.9145162940072395e-03  1.1956565453987797e-01  1.6657096312617730e-02  -1.4413097717696924e-01  -6.2338516243432299e-02  1.9428823600900352e-01  -3.0865755018512797e-02  -1.9780522666904227e-01  1.7176346695662258e-04  -9.3363230712988233e-03  -2.1650165579891831e-03  1.2156682628496639e-01  -2.6430479829141318e-02  1.0879510186501053e-04  1.7232849811582497e-02  4.0980662059545303e-01  -1.4642231708992642e-01  -5.5993934723342145e-04  -1.5384777387568804e-01  -3.8483071585494154e-02  1.5438418570913764e-01  -2.4518548190095824e-01  3.7896886709578963e-04  -1.8927951922020712e-03  -4.0963377407619720e-04  -1.6693740627580353e-01  7.6787557426915579e-02  1.8185330227697860e-01  -4.2364955834099272e-02  -2.3384906324782156e-02  -8.0352764737278409e-03  -7.5590461378666138e-03  -4.7912067421136094e-03  -4.2191639995485969e-01  -4.2978080761437953e-01  -3.2240516846285087e-02  -1.3986991327989567e-01  2.3487301313719905e-01  -4.2903342274200430e-02  1.2170016636451524e-01  -1.4207848737087711e-01  1.3781018941196677e-01  -1.8695696017580806e-02  9.6640119218410802e-05  -1.6346258587803147e-01  -4.3915438658473751e-04  -6.9782715338707876e-02  6.1281977910162905e-02  -2.5289511237840115e-03  3.8569808419487176e-03  7.5822258678178364e-03  -4.1202951710615256e-03  -1.4716477997642072e-02  1.0750263379441287e-02  4.0238489418245987e-01  4.9650040988134761e-02  -1.3727191563206855e-03  6.4062860547881720e-03  -2.6069240533439189e-02  -5.4216321270497917e-03  -1.0861995678066710e-02  -8.6681348546745456e-03  3.8361954087585359e-02  -5.6416089580665255e-02  9.2298858446837745e-02  4.2442340637283672e-02  -1.2965326051308521e-01  6.4034800082929215e-04  -2.6293994625300042e-02  -5.2532601116165216e-03  4.3481577615405609e-02  1.5069533161876589e-01  8.8001516017932602e-03  -1.0056697987236732e-01  1.3961785279801581e-01  1.5690246975719455e-01  1.2765853514189643e-01  1.3768406310133058e-01  -1.7289739274999660e-02  1.5291464730290436e-01  -1.8162039948297652e-03  -4.0215774832682970e-03  -5.3422323885418919e-02  -1.1894910811056736e-01  -4.1621591875372267e-02  4.4749979232232140e-01  -1.3492698686031662e-01  -3.1005421072431063e-02  5.2235516463231532e-02  -2.4888159731403425e-01  1.1594709605404287e-02  1.4988972678649972e-05  4.3314979612784084e-02  -1.2199271918697952e-03  3.7996432398788589e-04  -3.8213760557623960e-04  -1.2266878028688458e-03  6.0064926284900511e-02  8.1286043721967349e-02  -2.4605596695044873e-01  -2.2732164177462003e-02  -1.0123289779292731e-01  -2.7128220171626652e-02  4.5754343783989466e-02  1.1496312431257490e-02  1.4568181462169996e-01  -5.0570395159660973e-03  2.5359294826423318e-01  -7.8969078275544682e-02  -1.8178584550623908e-01  -1.3385144518849642e-02  -3.0547520485378035e-02  -2.3085720212708638e-01  1.6793730859833519e-01  3.7826958038499126e-01  -3.6442802154200832e-01  -2.4006883526212305e-01  -1.0519895473771876e-01  -2.0029395764170718e-02  -2.3630676567767500e-01  -2.1317903872546584e-01  1.2168488211259775e-03  -3.1719363463469114e-03  -3.2816865761558137e-02  -4.8633326544727531e-04  -3.0963115869600557e-03  -3.5562577557622502e-02  -1.5643337996671218e-02  -1.8541895490938910e-03  -3.6193788656052675e-02  3.3985839054403950e-02  1.4135830532054072e-01  -3.9673094844554996e-03  -1.1303320400645924e-03  -3.1014395096379804e-03  -1.9806045945740397e-01  5.0953408201349415e-02  -5.4161659169663492e-02  -6.5979282783564672e-02  -1.2428970912731443e-01  -8.9830126372144561e-02  -5.7857793443612216e-04  3.5129802384852632e-01  6.4780002885494077e-03  -5.9371250969796514e-02  1.0143859099798541e-01  3.5268980507454040e-01  -1.2259350694857738e-02  -1.4734080641036798e-01  8.5326145436580750e-02  -2.1381876156281145e-02  3.2153788671491890e-01  1.1715826244332677e-03  1.2714777952310907e-01  -7.8497961023286836e-02  -3.2169395435027892e-02  -7.3689561884653310e-02  -7.4252643139066264e-03  3.7591385847302175e-04  2.9556275375834319e-03  -1.2780393667959072e-01  1.9805486711440853e-01  1.2407083184261453e-02  -2.3701470876170846e-03  -5.6678122297102000e-03  2.3509356029778922e-01  1.1323694599037547e-02  -2.6961918194213313e-02  -5.9084458820681501e-02  2.0594791325281187e-01  -1.7735681421486396e-01  4.3456316363530062e-02  1.6080287552324191e-01  9.1659770261239906e-02  -1.3298209286761335e-02  1.9288725190193888e-02  -2.6831848834259486e-03  -7.3722828307293445e-02  -3.9806474393774306e-04  -9.9163214369151521e-03  9.9373460928693161e-02  -2.6231682064445103e-03  1.4219277562523944e-03  -9.9502606787408354e-02  1.2386628256150220e-01  2.0122311724295940e-02  1.6522373108905366e-03  -6.9609771715775676e-02  1.6960610040198432e-01  1.2790523967359385e-01  -3.3352107099226175e-02  -3.6290433848938042e-02  -2.4850368309613485e-02  -7.3651863957730740e-02  3.2606727785929643e-02  -3.8803055694786918e-02  -2.4012294782803437e-02  -1.0270460861302785e-03  -1.3925181214902194e-01  -1.9764496937624054e-01  -4.8771335947380007e-02  8.4376175915082702e-02  -3.1384844712310143e-02  7.9793968207063359e-04  9.8895450706265209e-02  -3.2785046178158689e-01  -7.0666425448070915e-03  7.5680428297978414e-02  4.6932013303039172e-01  -4.1982915117293174e-01  5.6010661683127252e-02  -1.2699968388744720e-01  3.6929178756659803e-01  -3.5287710083023727e-01  -1.4370750070322549e-01  9.1777767362752311e-02  6.4927437183653833e-03  5.6319974667686540e-02  -8.8162856549835023e-02  5.3888882086973316e-02  -7.9630148613750007e-02  -1.4376087913708319e-01  -3.7550437736688603e-06  6.3284246267518197e-03  -4.1084247853346908e-03  6.1453514762334089e-03  -5.3499319261431644e-02  -1.1310414036964332e-02  2.9191889059266984e-01  1.3988945407904336e-03  -7.2638545427723055e-03  -1.4928627679379219e-01  2.2514790419021344e-01  2.6539487427253200e-01  -1.3097452673372617e-01  -4.5983246155648291e-03  -2.0049678199585488e-03  -1.8256021500764896e-01  3.6141519278307284e-03  -2.5498376838453680e-03  4.2622038821215711e-03  -2.5725963729013951e-02  -1.0869332253503616e-02  -3.8493109544963801e-02  -4.2091553536089512e-03  -4.9944478039763637e-03  -3.4726279157868767e-03  -4.7290295876912785e-03  2.7159896054106919e-01  -4.6727949037114684e-02  3.0371692771764807e-02  -4.3706490364677608e-02  2.0714311945531871e-01  9.5617969452026115e-03  5.7925803688360630e-02  2.0493447877267170e-02  -3.9508549645027558e-01  -1.0002072375336836e-01  -1.7071017161778151e-02  -2.0761684499428898e-01  -4.6421481288079465e-03  -5.6120650098819877e-02  7.6720058516952672e-03  -9.9373381426674182e-03  6.4667075790010214e-02  4.8483136450729458e-01  1.6439262756044390e-05  -2.6493125732373314e-02  4.3725031075825108e-02  -2.5775115781151076e-02  -3.5097588489320028e-04  5.3797878192562640e-02  -4.8345540880510487e-03  -5.2934087466696440e-03  1.4068327442828080e-01  -3.7382891581289594e-02  -1.1689370596225034e-01  1.3812972925694650e-01  1.6184763777161770e-02  4.7418719145038965e-02  -6.4342042160657493e-03  1.8991708339475936e-04  -1.2064777870108012e-03  -2.7284889789090893e-02  4.9322194502628633e-02  1.6724047666099418e-02  1.4735315583413020e-01  1.9245377221709051e-01  -3.0323603499652718e-01  -2.1994710253051220e-01  -6.6228388630268323e-02  -8.6104969628749274e-04  7.9953291014041084e-02  -1.3172768271798441e-01  1.4338373016505679e-01  -1.0849867487365739e-01  -3.9523880777761035e-03  -1.6940701685211348e-01  1.4754250751764467e-02  1.6834096447153801e-01  -4.1792010464198270e-01  -3.4346543114836263e-03  -5.478141249656524