<?xml version="1.0"?>
<VTKFile type="UnstructuredGrid"  version="0.1"  >
<UnstructuredGrid>
<Piece  NumberOfPoints="4372" NumberOfCells="8502">
<Points>
<DataArray  type="Float64"  NumberOfComponents="3"  format="ascii">-2 2 0  0 2 0  0 -2 0  -2 -2 0  -1.949999999999792 2 0  -1.899999999999584 2 0  -1.849999999999375 2 0  -1.799999999999167 2 0  -1.749999999999002 2 0  -1.699999999999306 2 0  -1.649999999999653 2 0  -1.6 2 0  -1.550000000000346 2 0  -1.500000000000693 2 0  -1.45000000000104 2 0  -1.400000000001387 2 0  -1.350000000001733 2 0  -1.30000000000208 2 0  -1.250000000002427 2 0  -1.200000000002774 2 0  -1.150000000003121 2 0  -1.100000000003467 2 0  -1.050000000003814 2 0  -1.000000000004117 2 0  -0.9500000000039528 2 0  -0.9000000000037447 2 0  -0.8500000000035368 2 0  -0.8000000000033287 2 0  -0.7500000000031206 2 0  -0.7000000000029127 2 0  -0.6500000000027044 2 0  -0.6000000000024965 2 0  -0.5500000000022884 2 0  -0.5000000000020806 2 0  -0.4500000000018725 2 0  -0.4000000000016644 2 0  -0.3500000000014563 2 0  -0.3000000000012482 2 0  -0.2500000000010403 2 0  -0.200000000000832 2 0  -0.1500000000006243 2 0  -0.100000000000416 2 0  -0.0500000000002081 2 0  0 1.950000000000139 0  0 1.900000000000277 0  0 1.850000000000416 0  0 1.800000000000555 0  0 1.750000000000693 0  0 1.700000000000832 0  0 1.650000000000971 0  0 1.60000000000111 0  0 1.550000000001248 0  0 1.500000000001387 0  0 1.450000000001526 0  0 1.400000000001664 0  0 1.350000000001803 0  0 1.300000000001942 0  0 1.250000000002081 0  0 1.200000000002219 0  0 1.150000000002358 0  0 1.100000000002496 0  0 1.050000000002635 0  0 1.000000000002774 0  0 0.9500000000029125 0  0 0.9000000000030515 0  0 0.8500000000031902 0  0 0.8000000000033287 0  0 0.7500000000034674 0  0 0.7000000000036062 0  0 0.6500000000037449 0  0 0.6000000000038836 0  0 0.5500000000040224 0  0 0.5000000000041611 0  0 0.4500000000042998 0  0 0.4000000000044384 0  0 0.3500000000045771 0  0 0.3000000000047156 0  0 0.2500000000048543 0  0 0.2000000000049929 0  0 0.1500000000051318 0  0 0.1000000000052705 0  0 0.05000000000540905 0  0 5.504485756091526e-12 0  0 -0.04999999999459082 0  0 -0.09999999999472964 0  0 -0.149999999994868 0  0 -0.1999999999950068 0  0 -0.2499999999951457 0  0 -0.299999999995284 0  0 -0.3499999999954229 0  0 -0.3999999999955617 0  0 -0.4499999999957001 0  0 -0.4999999999958389 0  0 -0.5499999999959777 0  0 -0.5999999999961165 0  0 -0.6499999999962549 0  0 -0.6999999999963937 0  0 -0.7499999999965326 0  0 -0.7999999999966709 0  0 -0.8499999999968098 0  0 -0.8999999999969486 0  0 -0.949999999997087 0  0 -0.9999999999972258 0  0 -1.049999999997365 0  0 -1.099999999997503 0  0 -1.149999999997642 0  0 -1.199999999997781 0  0 -1.249999999997919 0  0 -1.299999999998058 0  0 -1.349999999998198 0  0 -1.399999999998336 0  0 -1.449999999998474 0  0 -1.499999999998613 0  0 -1.549999999998751 0  0 -1.599999999998891 0  0 -1.64999999999903 0  0 -1.699999999999168 0  0 -1.749999999999306 0  0 -1.799999999999445 0  0 -1.849999999999584 0  0 -1.899999999999723 0  0 -1.949999999999862 0  -0.04999999999990573 -2 0  -0.0999999999997993 -2 0  -0.1499999999997056 -2 0  -0.1999999999996293 -2 0  -0.2499999999995475 -2 0  -0.2999999999994072 -2 0  -0.3499999999992615 -2 0  -0.3999999999991157 -2 0  -0.44999999999897 -2 0  -0.4999999999988242 -2 0  -0.5499999999986784 -2 0  -0.5999999999985328 -2 0  -0.649999999998387 -2 0  -0.6999999999982413 -2 0  -0.7499999999980955 -2 0  -0.7999999999979498 -2 0  -0.8499999999978042 -2 0  -0.8999999999976585 -2 0  -0.9499999999975127 -2 0  -0.9999999999973885 -2 0  -1.049999999997498 -2 0  -1.09999999999763 -2 0  -1.149999999997762 -2 0  -1.199999999997894 -2 0  -1.249999999998025 -2 0  -1.299999999998157 -2 0  -1.349999999998289 -2 0  -1.39999999999842 -2 0  -1.449999999998552 -2 0  -1.499999999998683 -2 0  -1.549999999998815 -2 0  -1.599999999998947 -2 0  -1.649999999999078 -2 0  -1.69999999999921 -2 0  -1.749999999999342 -2 0  -1.799999999999474 -2 0  -1.849999999999605 -2 0  -1.899999999999737 -2 0  -1.949999999999869 -2 0  -2 -1.950000000000139 0  -2 -1.900000000000277 0  -2 -1.850000000000416 0  -2 -1.800000000000555 0  -2 -1.750000000000693 0  -2 -1.700000000000832 0  -2 -1.650000000000971 0  -2 -1.60000000000111 0  -2 -1.550000000001248 0  -2 -1.500000000001387 0  -2 -1.450000000001526 0  -2 -1.400000000001664 0  -2 -1.350000000001803 0  -2 -1.300000000001942 0  -2 -1.250000000002081 0  -2 -1.200000000002219 0  -2 -1.150000000002358 0  -2 -1.100000000002496 0  -2 -1.050000000002635 0  -2 -1.000000000002774 0  -2 -0.9500000000029125 0  -2 -0.9000000000030515 0  -2 -0.8500000000031902 0  -2 -0.8000000000033287 0  -2 -0.7500000000034674 0  -2 -0.7000000000036062 0  -2 -0.6500000000037449 0  -2 -0.6000000000038836 0  -2 -0.5500000000040224 0  -2 -0.5000000000041611 0  -2 -0.4500000000042998 0  -2 -0.4000000000044384 0  -2 -0.3500000000045771 0  -2 -0.3000000000047156 0  -2 -0.2500000000048543 0  -2 -0.2000000000049929 0  -2 -0.1500000000051318 0  -2 -0.1000000000052705 0  -2 -0.05000000000540905 0  -2 -5.504485756091526e-12 0  -2 0.04999999999459082 0  -2 0.09999999999472964 0  -2 0.149999999994868 0  -2 0.1999999999950068 0  -2 0.2499999999951457 0  -2 0.299999999995284 0  -2 0.3499999999954229 0  -2 0.3999999999955617 0  -2 0.4499999999957001 0  -2 0.4999999999958389 0  -2 0.5499999999959777 0  -2 0.5999999999961165 0  -2 0.6499999999962549 0  -2 0.6999999999963937 0  -2 0.7499999999965326 0  -2 0.7999999999966709 0  -2 0.8499999999968098 0  -2 0.8999999999969486 0  -2 0.949999999997087 0  -2 0.9999999999972258 0  -2 1.049999999997365 0  -2 1.099999999997503 0  -2 1.149999999997642 0  -2 1.199999999997781 0  -2 1.249999999997919 0  -2 1.299999999998058 0  -2 1.349999999998198 0  -2 1.399999999998336 0  -2 1.449999999998474 0  -2 1.499999999998613 0  -2 1.549999999998751 0  -2 1.599999999998891 0  -2 1.64999999999903 0  -2 1.699999999999168 0  -2 1.749999999999306 0  -2 1.799999999999445 0  -2 1.849999999999584 0  -2 1.899999999999723 0  -2 1.949999999999862 0  -0.9991019297010011 -0.3216894116769606 0  -1.001123860021573 0.7747860510049681 0  -1.157001840564423 -1.161067247012082 0  -1.338027560051535 1.335779534439809 0  -0.6597222222209854 1.340277777778947 0  -0.6585505322915344 0.2210104638722434 0  -1.342670381551713 0.2273264508688188 0  -0.6282204758073073 -0.8120080430170664 0  -0.584236517600881 -1.424312893620663 0  -1.444216308265114 -0.6762220291217811 0  -0.5052068177397626 0.8617966625436217 0  -1.495725541732084 0.8726406067560636 0  -0.5012956875285356 -0.2537377131698332 0  -1.505964779037762 -1.506864731248248 0  -1.533439101629034 -0.2141932377592857 0  -0.9980909254944228 -1.563025322244478 0  -1.573871097078973 -1.076090339205781 0  -0.9938363905916023 1.574658399668859 0  -1.034823301857025 -0.7463046737786232 0  -1.613643420611705 1.613643420611667 0  -0.3789826634893113 1.622833641383097 0  -0.9969623469406674 0.06224895986291776 0  -0.9977570821219073 1.152964911765466 0  -0.3827586671415756 0.4981078379584384 0  -1.617241332858342 0.4981078379584687 0  -0.3735162279179589 -1.10055932464888 0  -0.9514697352838486 0.4195344991084976 0  -0.3671724871528862 -0.5890291676826473 0  -0.8024708669961921 -1.130631989953667 0  -0.3498086031259764 1.176326426441 0  -1.654591699695181 1.175475929606857 0  -0.3418462529951587 0.05839036814553086 0  -1.276352049535552 0.5646214960700082 0  -0.3455726757630372 -1.654274000872155 0  -1.662000930981631 0.09800841401402562 0  -0.7326605900058469 -0.5029780286614124 0  -0.6815317218188973 0.6015493889244842 0  -1.294915051768271 1.68349586060536 0  -0.6978609120161386 1.682418596511037 0  -1.69042813419972 -0.4820149800903958 0  -0.7177378365368432 -1.691938564923942 0  -1.295041566734205 -0.3964989221993158 0  -1.257425593209587 -1.693594420665469 0  -1.246383246782414 -0.1148360514526407 0  -0.7362449271051545 -0.05964032805167522 0  -1.707983706106591 -0.8099422821034401 0  -0.7716224277305496 0.9720234774828133 0  -1.275827556233888 1.059370830779667 0  -1.709731219610966 -1.713515019749574 0  -0.283604077223767 -1.378462113197051 0  -1.331628086330126 -0.9256871504417986 0  -1.718803648671523 -1.313287096736098 0  -1.237157326776588 -1.417624750871973 0  -0.2754377852160807 -0.8405670548436512 0  -0.2604914310470714 0.745077019249353 0  -1.729633983752603 0.7365041208839631 0  -0.2591591556650803 -0.3445128723686334 0  -0.2497705497594995 0.2862378673199174 0  -0.2571319926197782 1.401471300128245 0  -1.750457518478978 1.404891698644917 0  -0.8313391195977098 -1.383947161511035 0  -1.24247470005791 0.8083576983762071 0  -1.75762809210058 -0.121394575294928 0  -1.436009639427774 -1.277692839795198 0  -0.9951285024698884 -0.9801850598617781 0  -0.5860531098993602 1.102916873865959 0  -1.107154037528234 1.367740498542844 0  -1.765353655027761 0.3139359895551974 0  -0.239693234576285 0.9675382248711792 0  -1.762311524625569 0.9715314837693784 0  -1.453060458314344 0.01668426334404738 0  -1.118216683883963 0.2510494134873997 0  -1.487314750788142 -1.768895281943666 0  -0.775695807447912 -0.2851187916602083 0  -1.775021992875828 1.773058151300929 0  -0.2244440016626344 1.771853493176412 0  -0.8797519944267721 1.389822301404418 0  -1.220958717521525 -0.6178523500889427 0  -0.59343770640056 -1.180817576357191 0  -0.9262618789157869 -1.776942446977449 0  -0.2205428235968764 -0.1260615883490472 0  -1.10972339161439 1.777127575560661 0  -0.9394997616645768 -0.5365790009321401 0  -0.812081892264416 -0.7153463049796221 0  -1.783917055200667 -1.008716696077253 0  -0.515263853692324 -1.788606832309386 0  -0.8883686379713935 1.780240085569055 0  -1.545545177082075 0.2916466799431231 0  -1.490071498349099 1.777107893879804 0  -0.5133806951054479 1.777756514587614 0  -1.042544744196485 -1.335739934857762 0  -0.8641039527440014 0.2249999999994 0  -1.475046450324973 0.6546028915744984 0  -1.529677928948796 1.412892352790367 0  -0.4613578028330296 1.41527900122371 0  -1.790928681625402 -1.
[...]
<PointData  Vectors="f_1087-0"> 
<DataArray  type="Float64"  Name="f_1087-0"  NumberOfComponents="3" format="ascii">2.3792968794717705e-03 3.6571503520395603e-04 0.0000000000000000e+00  -4.4667970104466867e-04 0.0000000000000000e+00 0.0000000000000000e+00  2.2203319541083057e-03 0.0000000000000000e+00 0.0000000000000000e+00  4.6860367943457326e-03 6.5749769230233512e-02 0.0000000000000000e+00  7.6839357644571931e-04 -8.1205291184404570e-05 0.0000000000000000e+00  -4.1216362406076258e-05 -1.1694097114500097e-04 0.0000000000000000e+00  8.7589404539895246e-03 1.0751031669796405e-02 0.0000000000000000e+00  5.1712217107679841e-04 -4.4681311085798649e-03 0.0000000000000000e+00  1.8168630013148314e-03 6.2039597497247660e-04 0.0000000000000000e+00  3.7437869783099927e-03 9.0011889011978137e-04 0.0000000000000000e+00  2.6895523527016183e-04 1.7076224860364242e-04 0.0000000000000000e+00  2.4112591083376328e-04 6.8483243485285429e-05 0.0000000000000000e+00  7.4800189655864610e-05 5.8182454259613167e-05 0.0000000000000000e+00  -2.7101291824324999e-04 1.0640744895317982e-05 0.0000000000000000e+00  -1.1681221038730876e-03 -8.1837065234898539e-04 0.0000000000000000e+00  -5.8654633839964410e-04 -4.1775315847448683e-04 0.0000000000000000e+00  1.4375596373042867e-02 4.6664112026073403e-03 0.0000000000000000e+00  1.5088737804139782e-04 5.5533942324307220e-05 0.0000000000000000e+00  3.6470538773519421e-04 1.6746145396994116e-04 0.0000000000000000e+00  -3.4311770348630468e-04 -1.3249773175892882e-03 0.0000000000000000e+00  7.4912099823373265e-03 5.3061871274526599e-03 0.0000000000000000e+00  7.0084055519473868e-03 6.0749293012782816e-03 0.0000000000000000e+00  -1.2715103054167788e-02 -6.0606828472258793e-03 0.0000000000000000e+00  -5.5272745147378710e-04 8.2412722977463434e-04 0.0000000000000000e+00  -1.2575719980649205e-03 -1.9004043027917347e-03 0.0000000000000000e+00  4.7767831228909789e-04 1.6745261710829115e-04 0.0000000000000000e+00  6.4827234207237284e-05 5.3734062784863189e-04 0.0000000000000000e+00  4.0172037178462885e-04 4.4102623069146454e-05 0.0000000000000000e+00  -1.6039783094505069e-03 2.0411905462088528e-05 0.0000000000000000e+00  1.9528175298164338e-04 -1.1641116761587200e-03 0.0000000000000000e+00  3.7173836367695957e-04 1.3915775758351927e-04 0.0000000000000000e+00  2.3033984876058226e-02 1.8675725653662954e-02 0.0000000000000000e+00  2.0441529717020201e-03 2.9462123397297073e-02 0.0000000000000000e+00  8.1944488285144203e-03 -2.7245202618198822e-02 0.0000000000000000e+00  8.1761098187974213e-03 -6.3747025722720916e-04 0.0000000000000000e+00  6.8767142313030383e-03 -2.0539093210270878e-02 0.0000000000000000e+00  7.1739903204940452e-03 7.5138765483067707e-03 0.0000000000000000e+00  3.5140091596648909e-03 6.4356359189195710e-03 0.0000000000000000e+00  1.0314525697616218e-03 -1.9288327822270593e-02 0.0000000000000000e+00  -6.8557223820614520e-04 -8.0072979090936656e-04 0.0000000000000000e+00  -2.3251052472790150e-03 -4.5700301776373904e-04 0.0000000000000000e+00  -3.0531250088116088e-03 -2.5177838071588918e-03 0.0000000000000000e+00  8.2701083569534397e-05 -4.9775836125959078e-06 0.0000000000000000e+00  1.6020257920754310e-03 0.0000000000000000e+00 0.0000000000000000e+00  4.3454008587381472e-02 0.0000000000000000e+00 0.0000000000000000e+00  6.7176053895629311e-03 0.0000000000000000e+00 0.0000000000000000e+00  2.6676007447319038e-03 0.0000000000000000e+00 0.0000000000000000e+00  -6.5414717529982055e-04 0.0000000000000000e+00 0.0000000000000000e+00  -1.2281846628238763e-03 0.0000000000000000e+00 0.0000000000000000e+00  -1.8424421140980755e-03 0.0000000000000000e+00 0.0000000000000000e+00  -2.2862158347774992e-03 0.0000000000000000e+00 0.0000000000000000e+00  -5.9842893837395224e-04 0.0000000000000000e+00 0.0000000000000000e+00  1.6497691024442073e-03 0.0000000000000000e+00 0.0000000000000000e+00  1.4013122703311365e-04 0.0000000000000000e+00 0.0000000000000000e+00  -1.4670815943890214e-02 0.0000000000000000e+00 0.0000000000000000e+00  -1.0848786528864760e-02 0.0000000000000000e+00 0.0000000000000000e+00  -1.2347043954583390e-02 0.0000000000000000e+00 0.0000000000000000e+00  -2.6971804689842832e-03 0.0000000000000000e+00 0.0000000000000000e+00  6.3744607302486118e-03 0.0000000000000000e+00 0.0000000000000000e+00  8.7328222535712902e-03 0.0000000000000000e+00 0.0000000000000000e+00  1.6145689644607851e-02 0.0000000000000000e+00 0.0000000000000000e+00  1.6287290879122854e-02 0.0000000000000000e+00 0.0000000000000000e+00  4.6376899257443610e-01 0.0000000000000000e+00 0.0000000000000000e+00  -1.6971111093329128e-01 0.0000000000000000e+00 0.0000000000000000e+00  4.5610476118368090e-02 0.0000000000000000e+00 0.0000000000000000e+00  -2.6754620486204229e-02 0.0000000000000000e+00 0.0000000000000000e+00  3.3240466817155631e-02 0.0000000000000000e+00 0.0000000000000000e+00  4.9865899271648417e-02 0.0000000000000000e+00 0.0000000000000000e+00  3.1346871301480457e-02 0.0000000000000000e+00 0.0000000000000000e+00  5.6991884967431917e-04 0.0000000000000000e+00 0.0000000000000000e+00  -2.1218998553926252e-01 0.0000000000000000e+00 0.0000000000000000e+00  -2.0892850608865790e-01 0.0000000000000000e+00 0.0000000000000000e+00  1.1489900235386884e-01 0.0000000000000000e+00 0.0000000000000000e+00  1.1316331176554907e-01 0.0000000000000000e+00 0.0000000000000000e+00  -3.5170176460898950e-03 0.0000000000000000e+00 0.0000000000000000e+00  -1.7327315745421300e-02 0.0000000000000000e+00 0.0000000000000000e+00  -2.3497132240127186e-02 0.0000000000000000e+00 0.0000000000000000e+00  7.0998480727228183e-02 0.0000000000000000e+00 0.0000000000000000e+00  1.2643032748901931e-01 0.0000000000000000e+00 0.0000000000000000e+00  -5.7332991231798774e-02 0.0000000000000000e+00 0.0000000000000000e+00  1.7704077258994588e-02 0.0000000000000000e+00 0.0000000000000000e+00  -1.9529409517181698e-02 0.0000000000000000e+00 0.0000000000000000e+00  7.1269340652880375e-02 0.0000000000000000e+00 0.0000000000000000e+00  -3.8684267735570509e-02 0.0000000000000000e+00 0.0000000000000000e+00  5.7744109155268928e-03 0.0000000000000000e+00 0.0000000000000000e+00  2.1639400976092132e-01 0.0000000000000000e+00 0.0000000000000000e+00  9.5339304757107862e-03 0.0000000000000000e+00 0.0000000000000000e+00  -1.9547917150740373e-02 0.0000000000000000e+00 0.0000000000000000e+00  -5.2993086021582192e-01 0.0000000000000000e+00 0.0000000000000000e+00  -2.7294900482375348e-02 0.0000000000000000e+00 0.0000000000000000e+00  -1.6858743632303533e-01 0.0000000000000000e+00 0.0000000000000000e+00  -6.6283756479606229e-02 0.0000000000000000e+00 0.0000000000000000e+00  -1.8855216151434456e-01 0.0000000000000000e+00 0.0000000000000000e+00  1.7384673504948359e-01 0.0000000000000000e+00 0.0000000000000000e+00  -7.2635595498933919e-02 0.0000000000000000e+00 0.0000000000000000e+00  1.0801308844570635e-01 0.0000000000000000e+00 0.0000000000000000e+00  3.1120910867077280e-02 0.0000000000000000e+00 0.0000000000000000e+00  2.9005976783550338e-02 0.0000000000000000e+00 0.0000000000000000e+00  -1.3596511438581494e-02 0.0000000000000000e+00 0.0000000000000000e+00  8.7179257872291513e-02 0.0000000000000000e+00 0.0000000000000000e+00  1.5565436409134273e-01 0.0000000000000000e+00 0.0000000000000000e+00  2.6811175228212358e-02 0.0000000000000000e+00 0.0000000000000000e+00  1.6515562540793680e-01 0.0000000000000000e+00 0.0000000000000000e+00  -1.6500701120827931e-02 0.0000000000000000e+00 0.0000000000000000e+00  3.7678382378679492e-01 0.0000000000000000e+00 0.0000000000000000e+00  -4.4761230442330394e-02 0.0000000000000000e+00 0.0000000000000000e+00  -1.2176284445006715e-02 0.0000000000000000e+00 0.0000000000000000e+00  -4.1716270168423567e-02 0.0000000000000000e+00 0.0000000000000000e+00  -3.9242325262806903e-02 0.0000000000000000e+00 0.0000000000000000e+00  1.3692070100441522e-02 0.0000000000000000e+00 0.0000000000000000e+00  2.7878118675847677e-02 0.0000000000000000e+00 0.0000000000000000e+00  -6.8130244665583650e-02 0.0000000000000000e+00 0.0000000000000000e+00  -4.1603568143083747e-02 0.0000000000000000e+00 0.0000000000000000e+00  4.0270069075265552e-01 0.0000000000000000e+00 0.0000000000000000e+00  -2.2230752850004462e-02 0.0000000000000000e+00 0.0000000000000000e+00  5.0900959789588196e-01 0.0000000000000000e+00 0.0000000000000000e+00  9.3314008663164059e-03 0.0000000000000000e+00 0.0000000000000000e+00  -1.7728767950634364e-01 0.0000000000000000e+00 0.0000000000000000e+00  1.0639818467605665e-01 0.0000000000000000e+00 0.0000000000000000e+00  9.9553180946265682e-03 0.0000000000000000e+00 0.0000000000000000e+00  -9.7990687433883866e-02 0.0000000000000000e+00 0.0000000000000000e+00  6.0877390629973271e-01 0.0000000000000000e+00 0.0000000000000000e+00  -8.7624509866796069e-02 1.1587167603673792e-02 0.0000000000000000e+00  4.6583634081534375e-02 4.8506167875940802e-02 0.0000000000000000e+00  -8.2459592607446647e-02 2.4224596935014393e-02 0.0000000000000000e+00  7.4977708501943081e-03 -1.4025966863032674e-01 0.0000000000000000e+00  2.5107791188484274e-02 3.2197532495615154e-02 0.0000000000000000e+00  2.0103293342176420e-02 1.8911846190291636e-02 0.0000000000000000e+00  5.0445480139096077e-01 7.3424643006066688e-03 0.0000000000000000e+00  4.7524832805625222e-01 4.0496496395742839e-03 0.0000000000000000e+00  -1.3821992774046572e-02 -1.9907697571628778e-02 0.0000000000000000e+00  6.0831142456048937e-01 6.2730109079216778e-01 0.0000000000000000e+00  1.5318221408289262e-02 6.5202341850279710e-01 0.0000000000000000e+00  -9.2898559831323668e-03 -8.2695885207167016e-02 0.0000000000000000e+00  2.9424999261288143e-01 2.1800594105164009e-02 0.0000000000000000e+00  2.7585173516227607e-02 1.8344827827961432e-01 0.0000000000000000e+00  -3.0302679619546382e-02 7.0156089857735353e-03 0.0000000000000000e+00  -1.9020073878666263e-02 2.9951193382275233e-04 0.0000000000000000e+00  -1.2714527831929074e-02 -3.9607306186072541e-02 0.0000000000000000e+00  8.5720754711141212e-02 5.6619702866373656e-01 0.0000000000000000e+00  -8.1711201385207211e-02 1.7202358425886837e-02 0.0000000000000000e+00  -1.2308123395850101e-01 -1.3965000182074419e-01 0.0000000000000000e+00  -1.6286493127783913e-01 1.8826314991957685e-01 0.0000000000000000e+00  -1.0795143552154308e-01 -1.1245834462564816e-01 0.0000000000000000e+00  -5.0569625375912169e-02 1.7942473662610484e-02 0.0000000000000000e+00  -1.0192600947947139e-01 -1.0238913041994908e-01 0.0000000000000000e+00  -1.6347557012977659e-01 -1.6942649027508305e-01 0.0000000000000000e+00  1.7015505456736760e-02 -1.0051283315689045e-01 0.0000000000000000e+00  -2.0795532277216006e-02 -1.6716181760850304e-01 0.0000000000000000e+00  -6.1767597767377731e-02 1.1247079281189622e-01 0.0000000000000000e+00  -2.0890738553368147e-03 -1.1481504496660405e-01 0.0000000000000000e+00  2.0323517116402254e-01 1.0814916306462868e-01 0.0000000000000000e+00  4.4953605467567735e-02 6.1934875323194050e-01 0.0000000000000000e+00  5.4068325148776582e-03 7.1617510325130851e-01 0.0000000000000000e+00  -1.8897754107017969e-01 -1.2585087896437644e-01 0.0000000000000000e+00  2.5313649818450418e-01 2.5291400647969829e-02 0.0000000000000000e+00  3.5258506360115988e-01 9.5920708129511728e-03 0.0000000000000000e+00  -2.4194536928434354e-01 -2.4620128938175551e-01 0.0000000000000000e+00  1.2151770440474363e-01 1.2136986624627634e-01 0.0000000000000000e+00  8.9770191110033707e-03 2.3193797239165664e-01 0.0000000000000000e+00  3.4838178647670015e-01 8.6637939085323135e-02 0.0000000000000000e+00  2.1231741910550034e-01 6.1463336847433492e-03 0.0000000000000000e+00  1.5684407446864679e-01 -1.4445472611993998e-03 0.0000000000000000e+00  1.7058404282692793e-01 1.7439260408922419e-01 0.0000000000000000e+00  -7.1879657620803478e-02 7.3619020299533211e-03 0.0000000000000000e+00  9.2137752607063233e-03 -1.3115752659690871e-01 0.0000000000000000e+00  -2.8096847749958465e-01 5.3783823973380315e-02 0.0000000000000000e+00  8.1478645259382455e-03 -2.9394729231028521e-01 0.0000000000000000e+00  -7.0115411281368263e-03 -1.3958626761206629e-02 0.0000000000000000e+00  -3.3106132917094994e-03 -8.3765646622356374e-03 0.0000000000000000e+00  4.5035921512447102e-03 1.5141775091938633e-02 0.0000000000000000e+00  1.2478523029234278e-02 1.7748963824774444e-01 0.0000000000000000e+00  5.0993864181648639e-03 -3.9576588247701477e-01 0.0000000000000000e+00  3.9493063866646860e-03 5.0002588006380572e-03 0.0000000000000000e+00  -4.3784191723870380e-01 -4.2092376306754364e-01 0.0000000000000000e+00  -2.1014687249263136e-01 6.3099131098325351e-02 0.0000000000000000e+00  3.4427729094028386e-02 -3.5680122501896078e-01 0.0000000000000000e+00  -2.4361170524721618e-01 5.4232661105974335e-02 0.0000000000000000e+00  -2.8482883029719736e-01 7.3687835886164649e-02 0.0000000000000000e+00  7.0542361537298107e-02 -3.2557570659459412e-01 0.0000000000000000e+00  5.0081992568620053e-03 -3.5080077879448768e-01 0.0000000000000000e+00  -3.4329328946889220e-01 8.4086979440236825e-02 0.0000000000000000e+00  5.1760578830322951e-02 -1.8155136861253839e-03 0.0000000000000000e+00  3.0748544057109905e-03 -2.6030242732716018e-02 0.0000000000000000e+00  1.1348734598628933e-01 -3.5146553968226517e-02 0.0000000000000000e+00  -3.1217079909018706e-03 -2.2489862142701961e-02 0.0000000000000000e+00  -3.1874866230335119e-01 -3.2527114512483130e-01 0.0000000000000000e+00  2.2447081037931080e-01 2.3066029116576570e-01 0.0000000000000000e+00  2.6612973250845484e-01 -4.1825468028916332e-02 0.0000000000000000e+00  -7.1650600909468560e-03 1.3935682906504884e-01 0.0000000000000000e+00  -2.7453403067280124e-01 2.8299303489082517e-01 0.0000000000000000e+00  3.7280895142581572e-01 3.8318446009281615e-01 0.0000000000000000e+00  -1.1877349455103174e-02 3.8488228407998387e-01 0.0000000000000000e+00  -1.4650725421998865e-02 -1.9783287727939711e-01 0.0000000000000000e+00  4.6718013466628482e-02 4.6378076394080488e-02 0.0000000000000000e+00  1.9903807783763316e-03 2.6285918684757817e-03 0.0000000000000000e+00  1.3144936246391979e-03 4.5607239414135005e-02 0.0000000000000000e+00  3.5842243056765366e-02 -4.9411458702736267e-03 0.0000000000000000e+00  9.0602273289567714e-02 4.1109940133726083e-02 0.0000000000000000e+00  -1.4861967306238719e-01 4.8464618073140162e-02 0.0000000000000000e+00  -1.6019095784903578e-01 4.2643572218071124e-01 0.0000000000000000e+00  1.7896358479122253e-02 2.1924676790050397e-02 0.0000000000000000e+00  -2.3169542080017405e-01 4.6254567756897680e-01 0.0000000000000000e+00  -2.2022557479301239e-01 -4.0732258067504828e-02 0.0000000000000000e+00  -2.2500167399414379e-04 2.7634795715278876e-03 0.0000000000000000e+00  1.4186760656390001e-02 9.0442443380044384e-04 0.0000000000000000e+00  -1.6850626917122807e-04 1.4282403666006048e-02 0.0000000000000000e+00  6.6303713683055947e-03 6.2412115111501083e-03 0.0000000000000000e+00  5.5695693822327896e-03 -6.3982357106069660e-03 0.0000000000000000e+00  -1.5116245914851924e-02 1.1159791008804109e-02 0.0000000000000000e+00  -1.1474462101504853e-02 1.6624644076480614e-02 0.0000000000000000e+00  -4.8765311676495317e-02 -1.7936936886554837e-02 0.0000000000000000e+00  4.7963125436279206e-04 -1.0700399919686195e-01 0.0000000000000000e+00  2.6422618176498757e-03 4.1308502204365569e-04 0.0000000000000000e+00  -2.0432747031114344e-03 3.2625042797275747e-03 0.0000000000000000e+00  2.8962469470684873e-03 3.1351799231077440e-03 0.0000000000000000e+00  -4.7607121770260712e-03 1.7795093057052362e-03 0.0000000000000000e+00  -1.5883975408147722e-03 -3.5344523651182872e-03 0.0000000000000000e+00  -2.4732645438583587e-03 -1.9375336116643994e-03 0.0000000000000000e+00  1.1024619832005059e-03 3.2695702170561388e-04 0.0000000000000000e+00  2.5520981494620873e-03 -1.5877414302953336e-03 0.0000000000000000e+00  2.0773540757014333e-02 2.0399692343430376e-04 0.0000000000000000e+00  1.1319762423445184e-03 1.7810086588732270e-03 0.0000000000000000e+00  8.9495178489937093e-04 -1.1660253678407134e-03 0.0000000000000000e+00  1.1604259540162010e-03 6.2102189623570586e-03 0.0000000000000000e+00  1.9756878005925582e-03 2.2624003094352800e-02 0.0000000000000000e+00  -4.3772877019806859e-03 -1.9141352264238174e-03 0.0000000000000000e+00  6.8174242938876287e-04 1.2891322807998071e-03 0.0000000000000000e+00  5.2894153139155706e-04 1.2909831235008982e-05 0.0000000000000000e+00  -4.0030463842086724e-03 -2.5589311692033900e-03 0.0000000000000000e+00  7.1284634205126089e-03 8.5202102796115321e-03 0.0000000000000000e+00  -3.5261980120763535e-05 -8.6649179503405958e-05 0.0000000000000000e+00  1.8405421607432604e-03 -2.0619664572687281e-04 0.0000000000000000e+00  -4.8760028053237861e-05 1.2252403049174793e-04 0.0000000000000000e+00  3.3204496183199614e-04 1.9467837187852824e-04 0.0000000000000000e+00  4.5421257301187035e-03 1.9289724415706292e-03 0.0000000000000000e+00  -2.1965433095536623e-04 -3.8238474314788458e-04 0.0000000000000000e+00  -5.6928356833720735e-06 -2.4877612154095042e-06 0.0000000000000000e+00  1.7100135297553206e-05 4.2807386365852403e-05 0.0000000000000000e+00  1.7333934881630314e-03 -8.0554571206271322e-04 0.0000000000000000e+00  1.7048785254050094e-01 -4.0631238943700754e-01 0.0000000000000000e+00  -1.7238767411699328e-03 -3.5982591147694712e-02 0.0000000000000000e+00  6.3496699399925716e-01 5.6977328031932199e-03 0.0000000000000000e+00  1.2610643963949025e-04 -5.8775954835313575e-03 0.0000000000000000e+00  -7.0986025170199233e-03 1.3273789377024888e-02 0.0000000000000000e+00  1.2263752482170166e-01 1.4537023126861010e-01 0.0000000000000000e+00  1.2328145632601024e-01 -1.4372172470593036e-01 0.0000000000000000e+00  -9.1853678683998519e-02 6.0178142756441462e-02 0.0000000000000000e+00  5.3056459169283698e-02 -4.8174824852171894e-02 0.0000000000000000e+00  1.0091965491157312e-01 3.2021866360581452e-01 0.0000000000000000e+00  4.0493253467679645e-03 1.7302739915008858e-02 0.0000000000000000e+00  -7.8029260706329352e-03 -8.8522802734053285e-03 0.0000000000000000e+00  2.4752508172666027e-01 -4.1984483875162543e-02 0.0000000000000000e+00  -6.6058115725995264e-02 6.8398288489472200e-02 0.0000000000000000e+00  6.8452883280950463e-02 6.7786535390062699e-02 0.0000000000000000e+00  3.9489379957764574e-02 4.0298279529596810e-02 0.0000000000000000e+00  -2.4474781230143519e-01 1.0050026611678077e-01 0.0000000000000000e+00  2.0505036685626596e-03 2.1564784677659148e-03 0.0000000000000000e+00  2.6978078734767935e-01 2.3027368342875698e-01 0.0000000000000000e+00  -2.4324872901680676e-03 -3.1931716664894260e-03 0.0000000000000000e+00  -3.1001521867841296e-04 9.6090368280264363e-02 0.0000000000000000e+00  -3.7248073402866905e-01 -3.6919064102464683e-01 0.0000000000000000e+00  -4.1002751462194103e-03 3.5593140220368802e-03 0.0000000000000000e+00  1.0944437752463544e-02 3.1431249123252070e-02 0.0000000000000000e+00  -1.8589342975549286e-01 3.6562895450589955e-01 0.0000000000000000e+00  -4.8789257072476395e-02 1.6014571031111152e-01 0.0000000000000000e+00  8.2621468766292228e-02 6.3078115391693085e-02 0.0000000000000000e+00  -1.8013710485802598e-01 -1.6483350171019109e-02 0.0000000000000000e+00  -5.5595264876641994e-02 -6.4427802051808855e-02 0.0000000000000000e+00  -4.6298922942515405e-02 2.5318553047481086e-02 0.0000000000000000e+00  -1.5620874168804181e-04 -6.8477993297018835e-04 0.0000000000000000e+00  6.2581974223117412e-03 2.2881258562374612e-01 0.0000000000000000e+00  -5.5132361041138611e-02 6.7520839354930223e-03 0.0000000000000000e+00  -3.3134277269899363e-02 6.4059060149646141e-01 0.0000000000000000e+00  -1.2576199009990619e-02 5.5052398427667612e-02 0.0000000000000000e+00  2.4230323224508471e-01 3.4051105844710522e-01 0.0000000000000000e+00  -2.3023568495114416e-01 2.3005972719643308e-01 0.0000000000000000e+00  1.1108706751427212e-03 4.5075259023618389e-04 0.0000000000000000e+00  1.0731152731739376e-03 -5.0900416953017665e-04 0.0000000000000000e+00  1.1832923280541656e-01 1.3717837347900466e-01 0.0000000000000000e+00  1.5427028265529411e-01 2.0479026393538544e-01 0.0000000000000000e+00  -2.841812963088