<?xml version="1.0"?>
<VTKFile type="UnstructuredGrid"  version="0.1"  >
<UnstructuredGrid>
<Piece  NumberOfPoints="4372" NumberOfCells="8502">
<Points>
<DataArray  type="Float64"  NumberOfComponents="3"  format="ascii">-2 2 0  0 2 0  0 -2 0  -2 -2 0  -1.949999999999792 2 0  -1.899999999999584 2 0  -1.849999999999375 2 0  -1.799999999999167 2 0  -1.749999999999002 2 0  -1.699999999999306 2 0  -1.649999999999653 2 0  -1.6 2 0  -1.550000000000346 2 0  -1.500000000000693 2 0  -1.45000000000104 2 0  -1.400000000001387 2 0  -1.350000000001733 2 0  -1.30000000000208 2 0  -1.250000000002427 2 0  -1.200000000002774 2 0  -1.150000000003121 2 0  -1.100000000003467 2 0  -1.050000000003814 2 0  -1.000000000004117 2 0  -0.9500000000039528 2 0  -0.9000000000037447 2 0  -0.8500000000035368 2 0  -0.8000000000033287 2 0  -0.7500000000031206 2 0  -0.7000000000029127 2 0  -0.6500000000027044 2 0  -0.6000000000024965 2 0  -0.5500000000022884 2 0  -0.5000000000020806 2 0  -0.4500000000018725 2 0  -0.4000000000016644 2 0  -0.3500000000014563 2 0  -0.3000000000012482 2 0  -0.2500000000010403 2 0  -0.200000000000832 2 0  -0.1500000000006243 2 0  -0.100000000000416 2 0  -0.0500000000002081 2 0  0 1.950000000000139 0  0 1.900000000000277 0  0 1.850000000000416 0  0 1.800000000000555 0  0 1.750000000000693 0  0 1.700000000000832 0  0 1.650000000000971 0  0 1.60000000000111 0  0 1.550000000001248 0  0 1.500000000001387 0  0 1.450000000001526 0  0 1.400000000001664 0  0 1.350000000001803 0  0 1.300000000001942 0  0 1.250000000002081 0  0 1.200000000002219 0  0 1.150000000002358 0  0 1.100000000002496 0  0 1.050000000002635 0  0 1.000000000002774 0  0 0.9500000000029125 0  0 0.9000000000030515 0  0 0.8500000000031902 0  0 0.8000000000033287 0  0 0.7500000000034674 0  0 0.7000000000036062 0  0 0.6500000000037449 0  0 0.6000000000038836 0  0 0.5500000000040224 0  0 0.5000000000041611 0  0 0.4500000000042998 0  0 0.4000000000044384 0  0 0.3500000000045771 0  0 0.3000000000047156 0  0 0.2500000000048543 0  0 0.2000000000049929 0  0 0.1500000000051318 0  0 0.1000000000052705 0  0 0.05000000000540905 0  0 5.504485756091526e-12 0  0 -0.04999999999459082 0  0 -0.09999999999472964 0  0 -0.149999999994868 0  0 -0.1999999999950068 0  0 -0.2499999999951457 0  0 -0.299999999995284 0  0 -0.3499999999954229 0  0 -0.3999999999955617 0  0 -0.4499999999957001 0  0 -0.4999999999958389 0  0 -0.5499999999959777 0  0 -0.5999999999961165 0  0 -0.6499999999962549 0  0 -0.6999999999963937 0  0 -0.7499999999965326 0  0 -0.7999999999966709 0  0 -0.8499999999968098 0  0 -0.8999999999969486 0  0 -0.949999999997087 0  0 -0.9999999999972258 0  0 -1.049999999997365 0  0 -1.099999999997503 0  0 -1.149999999997642 0  0 -1.199999999997781 0  0 -1.249999999997919 0  0 -1.299999999998058 0  0 -1.349999999998198 0  0 -1.399999999998336 0  0 -1.449999999998474 0  0 -1.499999999998613 0  0 -1.549999999998751 0  0 -1.599999999998891 0  0 -1.64999999999903 0  0 -1.699999999999168 0  0 -1.749999999999306 0  0 -1.799999999999445 0  0 -1.849999999999584 0  0 -1.899999999999723 0  0 -1.949999999999862 0  -0.04999999999990573 -2 0  -0.0999999999997993 -2 0  -0.1499999999997056 -2 0  -0.1999999999996293 -2 0  -0.2499999999995475 -2 0  -0.2999999999994072 -2 0  -0.3499999999992615 -2 0  -0.3999999999991157 -2 0  -0.44999999999897 -2 0  -0.4999999999988242 -2 0  -0.5499999999986784 -2 0  -0.5999999999985328 -2 0  -0.649999999998387 -2 0  -0.6999999999982413 -2 0  -0.7499999999980955 -2 0  -0.7999999999979498 -2 0  -0.8499999999978042 -2 0  -0.8999999999976585 -2 0  -0.9499999999975127 -2 0  -0.9999999999973885 -2 0  -1.049999999997498 -2 0  -1.09999999999763 -2 0  -1.149999999997762 -2 0  -1.199999999997894 -2 0  -1.249999999998025 -2 0  -1.299999999998157 -2 0  -1.349999999998289 -2 0  -1.39999999999842 -2 0  -1.449999999998552 -2 0  -1.499999999998683 -2 0  -1.549999999998815 -2 0  -1.599999999998947 -2 0  -1.649999999999078 -2 0  -1.69999999999921 -2 0  -1.749999999999342 -2 0  -1.799999999999474 -2 0  -1.849999999999605 -2 0  -1.899999999999737 -2 0  -1.949999999999869 -2 0  -2 -1.950000000000139 0  -2 -1.900000000000277 0  -2 -1.850000000000416 0  -2 -1.800000000000555 0  -2 -1.750000000000693 0  -2 -1.700000000000832 0  -2 -1.650000000000971 0  -2 -1.60000000000111 0  -2 -1.550000000001248 0  -2 -1.500000000001387 0  -2 -1.450000000001526 0  -2 -1.400000000001664 0  -2 -1.350000000001803 0  -2 -1.300000000001942 0  -2 -1.250000000002081 0  -2 -1.200000000002219 0  -2 -1.150000000002358 0  -2 -1.100000000002496 0  -2 -1.050000000002635 0  -2 -1.000000000002774 0  -2 -0.9500000000029125 0  -2 -0.9000000000030515 0  -2 -0.8500000000031902 0  -2 -0.8000000000033287 0  -2 -0.7500000000034674 0  -2 -0.7000000000036062 0  -2 -0.6500000000037449 0  -2 -0.6000000000038836 0  -2 -0.5500000000040224 0  -2 -0.5000000000041611 0  -2 -0.4500000000042998 0  -2 -0.4000000000044384 0  -2 -0.3500000000045771 0  -2 -0.3000000000047156 0  -2 -0.2500000000048543 0  -2 -0.2000000000049929 0  -2 -0.1500000000051318 0  -2 -0.1000000000052705 0  -2 -0.05000000000540905 0  -2 -5.504485756091526e-12 0  -2 0.04999999999459082 0  -2 0.09999999999472964 0  -2 0.149999999994868 0  -2 0.1999999999950068 0  -2 0.2499999999951457 0  -2 0.299999999995284 0  -2 0.3499999999954229 0  -2 0.3999999999955617 0  -2 0.4499999999957001 0  -2 0.4999999999958389 0  -2 0.5499999999959777 0  -2 0.5999999999961165 0  -2 0.6499999999962549 0  -2 0.6999999999963937 0  -2 0.7499999999965326 0  -2 0.7999999999966709 0  -2 0.8499999999968098 0  -2 0.8999999999969486 0  -2 0.949999999997087 0  -2 0.9999999999972258 0  -2 1.049999999997365 0  -2 1.099999999997503 0  -2 1.149999999997642 0  -2 1.199999999997781 0  -2 1.249999999997919 0  -2 1.299999999998058 0  -2 1.349999999998198 0  -2 1.399999999998336 0  -2 1.449999999998474 0  -2 1.499999999998613 0  -2 1.549999999998751 0  -2 1.599999999998891 0  -2 1.64999999999903 0  -2 1.699999999999168 0  -2 1.749999999999306 0  -2 1.799999999999445 0  -2 1.849999999999584 0  -2 1.899999999999723 0  -2 1.949999999999862 0  -0.9991019297010011 -0.3216894116769606 0  -1.001123860021573 0.7747860510049681 0  -1.157001840564423 -1.161067247012082 0  -1.338027560051535 1.335779534439809 0  -0.6597222222209854 1.340277777778947 0  -0.6585505322915344 0.2210104638722434 0  -1.342670381551713 0.2273264508688188 0  -0.6282204758073073 -0.8120080430170664 0  -0.584236517600881 -1.424312893620663 0  -1.444216308265114 -0.6762220291217811 0  -0.5052068177397626 0.8617966625436217 0  -1.495725541732084 0.8726406067560636 0  -0.5012956875285356 -0.2537377131698332 0  -1.505964779037762 -1.506864731248248 0  -1.533439101629034 -0.2141932377592857 0  -0.9980909254944228 -1.563025322244478 0  -1.573871097078973 -1.076090339205781 0  -0.9938363905916023 1.574658399668859 0  -1.034823301857025 -0.7463046737786232 0  -1.613643420611705 1.613643420611667 0  -0.3789826634893113 1.622833641383097 0  -0.9969623469406674 0.06224895986291776 0  -0.9977570821219073 1.152964911765466 0  -0.3827586671415756 0.4981078379584384 0  -1.617241332858342 0.4981078379584687 0  -0.3735162279179589 -1.10055932464888 0  -0.9514697352838486 0.4195344991084976 0  -0.3671724871528862 -0.5890291676826473 0  -0.8024708669961921 -1.130631989953667 0  -0.3498086031259764 1.176326426441 0  -1.654591699695181 1.175475929606857 0  -0.3418462529951587 0.05839036814553086 0  -1.276352049535552 0.5646214960700082 0  -0.3455726757630372 -1.654274000872155 0  -1.662000930981631 0.09800841401402562 0  -0.7326605900058469 -0.5029780286614124 0  -0.6815317218188973 0.6015493889244842 0  -1.294915051768271 1.68349586060536 0  -0.6978609120161386 1.682418596511037 0  -1.69042813419972 -0.4820149800903958 0  -0.7177378365368432 -1.691938564923942 0  -1.295041566734205 -0.3964989221993158 0  -1.257425593209587 -1.693594420665469 0  -1.246383246782414 -0.1148360514526407 0  -0.7362449271051545 -0.05964032805167522 0  -1.707983706106591 -0.8099422821034401 0  -0.7716224277305496 0.9720234774828133 0  -1.275827556233888 1.059370830779667 0  -1.709731219610966 -1.713515019749574 0  -0.283604077223767 -1.378462113197051 0  -1.331628086330126 -0.9256871504417986 0  -1.718803648671523 -1.313287096736098 0  -1.237157326776588 -1.417624750871973 0  -0.2754377852160807 -0.8405670548436512 0  -0.2604914310470714 0.745077019249353 0  -1.729633983752603 0.7365041208839631 0  -0.2591591556650803 -0.3445128723686334 0  -0.2497705497594995 0.2862378673199174 0  -0.2571319926197782 1.401471300128245 0  -1.750457518478978 1.404891698644917 0  -0.8313391195977098 -1.383947161511035 0  -1.24247470005791 0.8083576983762071 0  -1.75762809210058 -0.121394575294928 0  -1.436009639427774 -1.277692839795198 0  -0.9951285024698884 -0.9801850598617781 0  -0.5860531098993602 1.102916873865959 0  -1.107154037528234 1.367740498542844 0  -1.765353655027761 0.3139359895551974 0  -0.239693234576285 0.9675382248711792 0  -1.762311524625569 0.9715314837693784 0  -1.453060458314344 0.01668426334404738 0  -1.118216683883963 0.2510494134873997 0  -1.487314750788142 -1.768895281943666 0  -0.775695807447912 -0.2851187916602083 0  -1.775021992875828 1.773058151300929 0  -0.2244440016626344 1.771853493176412 0  -0.8797519944267721 1.389822301404418 0  -1.220958717521525 -0.6178523500889427 0  -0.59343770640056 -1.180817576357191 0  -0.9262618789157869 -1.776942446977449 0  -0.2205428235968764 -0.1260615883490472 0  -1.10972339161439 1.777127575560661 0  -0.9394997616645768 -0.5365790009321401 0  -0.812081892264416 -0.7153463049796221 0  -1.783917055200667 -1.008716696077253 0  -0.515263853692324 -1.788606832309386 0  -0.8883686379713935 1.780240085569055 0  -1.545545177082075 0.2916466799431231 0  -1.490071498349099 1.777107893879804 0  -0.5133806951054479 1.777756514587614 0  -1.042544744196485 -1.335739934857762 0  -0.8641039527440014 0.2249999999994 0  -1.475046450324973 0.6546028915744984 0  -1.529677928948796 1.412892352790367 0  -0.4613578028330296 1.41527900122371 0  -1.790928681625402 -1.
[...]
<PointData  Vectors="f_1087-0"> 
<DataArray  type="Float64"  Name="f_1087-0"  NumberOfComponents="3" format="ascii">-6.7206436365234747e-03 -2.1432323520192546e-03 0.0000000000000000e+00  -5.6740603979405805e-03 0.0000000000000000e+00 0.0000000000000000e+00  -1.5584688528118187e-02 0.0000000000000000e+00 0.0000000000000000e+00  -3.0771425299775897e-02 5.2656430482901778e-03 0.0000000000000000e+00  -2.2258989357392929e-03 -4.1094421976040013e-03 0.0000000000000000e+00  -4.4734426310312882e-04 -5.8600617320587090e-04 0.0000000000000000e+00  -3.9527379547512932e-02 -4.8630574502311098e-02 0.0000000000000000e+00  -2.4778965255253236e-03 2.1007024559055905e-02 0.0000000000000000e+00  -6.7298153087527067e-03 -3.2918501614849502e-03 0.0000000000000000e+00  -1.5949806809761314e-02 -5.2722797723663822e-03 0.0000000000000000e+00  -1.5684097657073397e-02 -3.1422925000111086e-03 0.0000000000000000e+00  -1.2330461237467550e-02 -8.7038317181600280e-04 0.0000000000000000e+00  -2.5353001733510140e-03 -1.2307512437534931e-03 0.0000000000000000e+00  -8.4724227326300333e-03 -7.1203646018052204e-04 0.0000000000000000e+00  -2.6064444094772029e-03 -2.6667650017848663e-03 0.0000000000000000e+00  -1.3235865942035423e-03 -1.2923151866607143e-03 0.0000000000000000e+00  -6.4999103689869248e-02 7.3584303803653217e-04 0.0000000000000000e+00  -1.7083050359779063e-02 -2.0038119595325570e-03 0.0000000000000000e+00  -2.7191024783664745e-02 -6.1601002442397950e-03 0.0000000000000000e+00  -1.0348800110929909e-03 -3.2732138068815109e-03 0.0000000000000000e+00  -4.6235542511472785e-03 -1.1549923537469281e-02 0.0000000000000000e+00  -3.3048589256311815e-02 -1.1465931843043137e-02 0.0000000000000000e+00  5.5496912273039767e-02 3.1829157390175229e-02 0.0000000000000000e+00  -1.0531708147449193e-03 -5.8898053671055158e-03 0.0000000000000000e+00  -4.7571638363463169e-03 -1.6530603011220377e-02 0.0000000000000000e+00  -8.4854583937649160e-03 -7.3000720037898264e-03 0.0000000000000000e+00  -9.7588627221287076e-04 -5.4788594972992467e-02 0.0000000000000000e+00  -1.2903087074243893e-02 -7.1579046693459527e-04 0.0000000000000000e+00  -2.7287529105329437e-02 -5.8547112164660073e-04 0.0000000000000000e+00  -7.8747305027616551e-03 -2.1829212609729209e-02 0.0000000000000000e+00  -5.6748769096490806e-03 -6.6001941303019673e-03 0.0000000000000000e+00  -1.0273993655607913e-01 -8.4748827393037907e-02 0.0000000000000000e+00  3.6847987555505918e-02 -1.2816474446919426e-01 0.0000000000000000e+00  -1.5004735204337698e-02 9.0982792204402335e-02 0.0000000000000000e+00  -1.5566897279287339e-02 -5.9301713903231988e-05 0.0000000000000000e+00  -3.3442688435189584e-02 7.2388744262188123e-02 0.0000000000000000e+00  -1.4314075579296554e-02 -1.5625618444937733e-02 0.0000000000000000e+00  -2.1378104883896607e-02 -1.6014998404731237e-02 0.0000000000000000e+00  -1.7656689845099507e-02 7.9888597012096899e-02 0.0000000000000000e+00  -5.7209763518033642e-03 -1.3768266381923404e-05 0.0000000000000000e+00  -5.8717119522508528e-03 1.6552875654276204e-02 0.0000000000000000e+00  -7.7477587051199837e-03 -1.9726450557979575e-02 0.0000000000000000e+00  -1.3781810451512336e-02 -1.2887389782133816e-04 0.0000000000000000e+00  -2.4778000686253906e-02 0.0000000000000000e+00 0.0000000000000000e+00  -1.7204659550245621e-01 0.0000000000000000e+00 0.0000000000000000e+00  -1.3626334742340762e-02 0.0000000000000000e+00 0.0000000000000000e+00  -1.2713837608746940e-02 0.0000000000000000e+00 0.0000000000000000e+00  -2.1789169319258953e-03 0.0000000000000000e+00 0.0000000000000000e+00  4.9684840987467569e-03 0.0000000000000000e+00 0.0000000000000000e+00  -1.9754614012780416e-03 0.0000000000000000e+00 0.0000000000000000e+00  -4.1712068633058680e-03 0.0000000000000000e+00 0.0000000000000000e+00  -4.0002867092614660e-03 0.0000000000000000e+00 0.0000000000000000e+00  -1.6007778015872415e-02 0.0000000000000000e+00 0.0000000000000000e+00  -9.0593750255533252e-04 0.0000000000000000e+00 0.0000000000000000e+00  1.5027901829330982e-02 0.0000000000000000e+00 0.0000000000000000e+00  1.9652604308171770e-04 0.0000000000000000e+00 0.0000000000000000e+00  -1.3733048422360832e-02 0.0000000000000000e+00 0.0000000000000000e+00  -4.3503535585623379e-02 0.0000000000000000e+00 0.0000000000000000e+00  -4.1906024601810941e-02 0.0000000000000000e+00 0.0000000000000000e+00  -6.8091486777532892e-02 0.0000000000000000e+00 0.0000000000000000e+00  -1.2130832223931481e-01 0.0000000000000000e+00 0.0000000000000000e+00  -9.4974214875717611e-02 0.0000000000000000e+00 0.0000000000000000e+00  -3.2481975601086077e-01 0.0000000000000000e+00 0.0000000000000000e+00  -1.5689962016921216e-02 0.0000000000000000e+00 0.0000000000000000e+00  -7.4124719334477659e-02 0.0000000000000000e+00 0.0000000000000000e+00  -8.9986254093589541e-02 0.0000000000000000e+00 0.0000000000000000e+00  -8.0160380490542180e-02 0.0000000000000000e+00 0.0000000000000000e+00  -5.4773457132183553e-02 0.0000000000000000e+00 0.0000000000000000e+00  -1.4787730524008114e-01 0.0000000000000000e+00 0.0000000000000000e+00  -1.4013620121486299e-03 0.0000000000000000e+00 0.0000000000000000e+00  -8.6615910583276917e-02 0.0000000000000000e+00 0.0000000000000000e+00  -6.2290495862328210e-02 0.0000000000000000e+00 0.0000000000000000e+00  -1.0533902130909227e-02 0.0000000000000000e+00 0.0000000000000000e+00  -3.4966744658128948e-02 0.0000000000000000e+00 0.0000000000000000e+00  5.6320994395299889e-02 0.0000000000000000e+00 0.0000000000000000e+00  4.7186994997029594e-02 0.0000000000000000e+00 0.0000000000000000e+00  2.4120857152211161e-01 0.0000000000000000e+00 0.0000000000000000e+00  4.5995699254658823e-03 0.0000000000000000e+00 0.0000000000000000e+00  1.6343242189529678e-02 0.0000000000000000e+00 0.0000000000000000e+00  2.5415722965674219e-03 0.0000000000000000e+00 0.0000000000000000e+00  1.2692602473834642e-02 0.0000000000000000e+00 0.0000000000000000e+00  4.4360109419599517e-02 0.0000000000000000e+00 0.0000000000000000e+00  2.5767110636652039e-02 0.0000000000000000e+00 0.0000000000000000e+00  1.9049072572941410e-02 0.0000000000000000e+00 0.0000000000000000e+00  -4.9064043299135107e-02 0.0000000000000000e+00 0.0000000000000000e+00  9.7614388298841545e-02 0.0000000000000000e+00 0.0000000000000000e+00  2.2037673616372899e-01 0.0000000000000000e+00 0.0000000000000000e+00  3.4958632264248690e-03 0.0000000000000000e+00 0.0000000000000000e+00  -3.4964983362963920e-01 0.0000000000000000e+00 0.0000000000000000e+00  7.1572557139298696e-03 0.0000000000000000e+00 0.0000000000000000e+00  3.7886243642809458e-02 0.0000000000000000e+00 0.0000000000000000e+00  1.9467447719490341e-02 0.0000000000000000e+00 0.0000000000000000e+00  8.0653366394755635e-02 0.0000000000000000e+00 0.0000000000000000e+00  -2.4105057247267053e-02 0.0000000000000000e+00 0.0000000000000000e+00  -1.4697588018893423e-02 0.0000000000000000e+00 0.0000000000000000e+00  -8.2192057584270978e-02 0.0000000000000000e+00 0.0000000000000000e+00  1.3187129390988442e-02 0.0000000000000000e+00 0.0000000000000000e+00  3.4734172564423359e-04 0.0000000000000000e+00 0.0000000000000000e+00  -1.2957435538910922e-01 0.0000000000000000e+00 0.0000000000000000e+00  -2.6898029307847349e-02 0.0000000000000000e+00 0.0000000000000000e+00  -7.6502964179278612e-02 0.0000000000000000e+00 0.0000000000000000e+00  -1.0315633843390720e-01 0.0000000000000000e+00 0.0000000000000000e+00  -1.8100683995633898e-02 0.0000000000000000e+00 0.0000000000000000e+00  -9.1541433830211849e-02 0.0000000000000000e+00 0.0000000000000000e+00  -3.8669197848288039e-01 0.0000000000000000e+00 0.0000000000000000e+00  1.5914086006303559e-02 0.0000000000000000e+00 0.0000000000000000e+00  3.1830072887580031e-02 0.0000000000000000e+00 0.0000000000000000e+00  6.6931090359109685e-02 0.0000000000000000e+00 0.0000000000000000e+00  -4.3865312332542122e-02 0.0000000000000000e+00 0.0000000000000000e+00  -1.3602289071542730e-02 0.0000000000000000e+00 0.0000000000000000e+00  1.5038487577354744e-02 0.0000000000000000e+00 0.0000000000000000e+00  9.6782622263502788e-02 0.0000000000000000e+00 0.0000000000000000e+00  6.9812128793761558e-02 0.0000000000000000e+00 0.0000000000000000e+00  -1.2747414421921577e+00 0.0000000000000000e+00 0.0000000000000000e+00  -1.7766911081242939e-02 0.0000000000000000e+00 0.0000000000000000e+00  -1.6510514438804760e+00 0.0000000000000000e+00 0.0000000000000000e+00  8.8172979949377814e-03 0.0000000000000000e+00 0.0000000000000000e+00  5.6587704332540811e-01 0.0000000000000000e+00 0.0000000000000000e+00  -1.6545435259247140e-01 0.0000000000000000e+00 0.0000000000000000e+00  -3.5977929385986832e-02 0.0000000000000000e+00 0.0000000000000000e+00  2.7616399194484231e-01 0.0000000000000000e+00 0.0000000000000000e+00  -2.2681720308310620e+00 0.0000000000000000e+00 0.0000000000000000e+00  2.6946762108784650e-01 -4.3238263405662385e-02 0.0000000000000000e+00  -1.2262068078315504e-01 -1.3609983343228826e-01 0.0000000000000000e+00  2.3088617211128701e-01 -5.4473622764937113e-02 0.0000000000000000e+00  -1.0360852726538185e-01 4.3453287573258964e-01 0.0000000000000000e+00  -5.5524912371868004e-02 -2.0432629830939941e-01 0.0000000000000000e+00  -2.2365846707580311e-01 -3.7046572276538001e-02 0.0000000000000000e+00  -6.8655420019429747e-01 -2.0741891432696968e-01 0.0000000000000000e+00  -6.1022712309975613e-01 -2.3353298006561868e-01 0.0000000000000000e+00  -2.7958740462772230e-01 -2.8139290556748459e-01 0.0000000000000000e+00  -1.5650787715072951e+00 -1.5295024210325932e+00 0.0000000000000000e+00  -2.1958682374619714e-02 -8.0242018014469219e-01 0.0000000000000000e+00  7.0741682896001912e-02 1.1549470273167634e-01 0.0000000000000000e+00  -6.1636773430371639e-01 -1.2611173091428070e-02 0.0000000000000000e+00  3.9426878759713173e-02 -3.7299825434836997e-01 0.0000000000000000e+00  -5.0000725870388396e-02 3.9834501143913389e-02 0.0000000000000000e+00  5.1821861720942150e-02 2.4618106197279555e-02 0.0000000000000000e+00  5.4094124500555764e-02 -4.7775334982154527e-02 0.0000000000000000e+00  1.9943147295745506e-03 -4.2070572281313712e-01 0.0000000000000000e+00  -1.0225739820198512e-01 -6.6746469784568869e-03 0.0000000000000000e+00  8.7521149947366844e-02 -3.4825317229031198e-02 0.0000000000000000e+00  -8.4613311875039593e-03 -2.5487462260994809e-01 0.0000000000000000e+00  5.5042616595732216e-02 5.5985454471051604e-02 0.0000000000000000e+00  -1.2632652897609703e-01 -4.4196298814782459e-03 0.0000000000000000e+00  -7.3665201799647625e-02 -6.1561648378457082e-02 0.0000000000000000e+00  9.9140641043972882e-02 1.0176902618763106e-01 0.0000000000000000e+00  -8.4995356940313557e-03 5.3029048120546853e-02 0.0000000000000000e+00  -5.9534479592590173e-02 8.6801664196750478e-02 0.0000000000000000e+00  5.5376921992774539e-02 -7.6471497835341601e-02 0.0000000000000000e+00  -6.4099423193718988e-03 4.4587884537746668e-02 0.0000000000000000e+00  -3.1679337652482514e-02 5.7910479257392664e-02 0.0000000000000000e+00  -4.6137479787464776e-02 5.9104645810188039e-02 0.0000000000000000e+00  -6.4149167889538490e-04 4.6199669482970579e-02 0.0000000000000000e+00  -1.6074026960111787e-02 1.1899446397527817e-02 0.0000000000000000e+00  4.4848777020686958e-02 7.5740925524872563e-02 0.0000000000000000e+00  1.2217998694501403e-01 5.0143791455695933e-04 0.0000000000000000e+00  -3.5017393998991904e-02 -2.0020567047391358e-02 0.0000000000000000e+00  3.4373846174963751e-03 -2.1072884437482176e-03 0.0000000000000000e+00  1.1471893224641386e-03 9.9906419553181608e-02 0.0000000000000000e+00  1.4110270483000581e-01 3.4186958775841408e-02 0.0000000000000000e+00  5.3033229563173405e-02 -2.4928048582679364e-02 0.0000000000000000e+00  1.1527415776279163e-02 -2.7922291333818672e-02 0.0000000000000000e+00  1.7504600605659788e-02 2.5474938615800531e-02 0.0000000000000000e+00  2.2149418017974754e-01 -7.9615619849804559e-02 0.0000000000000000e+00  -7.2787678244381565e-02 -1.1250658192001727e-01 0.0000000000000000e+00  -1.8870081976475489e-01 -1.2238684714160994e-02 0.0000000000000000e+00  9.4810650977288791e-03 -1.7083658956929998e-01 0.0000000000000000e+00  4.5237951590648064e-02 4.8842735902990403e-02 0.0000000000000000e+00  4.0352716897129839e-02 4.8474533436719834e-02 0.0000000000000000e+00  -9.9243315031985607e-03 3.0702088866373455e-02 0.0000000000000000e+00  -3.7429802320594358e-05 3.5577345602902787e-02 0.0000000000000000e+00  3.7978065510230982e-03 -9.0164366425826037e-02 0.0000000000000000e+00  4.0622447557896024e-03 3.4381216975377950e-03 0.0000000000000000e+00  -1.3138500446797963e-01 -1.1380520988503273e-01 0.0000000000000000e+00  -1.7470432595293239e-01 -1.2591453661814682e-02 0.0000000000000000e+00  -3.3534336796401491e-02 -2.1999282572598117e-01 0.0000000000000000e+00  -1.9584832145259215e-01 2.5830478740758375e-03 0.0000000000000000e+00  -2.5281394898673432e-01 -1.1284026156465647e-02 0.0000000000000000e+00  2.3575353688911177e-01 -2.6651610831885514e-01 0.0000000000000000e+00  8.8700327892413180e-03 -2.6346969926418540e-01 0.0000000000000000e+00  -2.8066842046708323e-01 -9.6317987177550642e-03 0.0000000000000000e+00  -4.4889625377965911e-02 1.9023231096385665e-03 0.0000000000000000e+00  -7.2357900199090750e-03 9.1935978051719658e-02 0.0000000000000000e+00  -3.7351737839888370e-02 -2.9527295441827486e-03 0.0000000000000000e+00  -6.3626537918813911e-02 -2.1062677385949823e-03 0.0000000000000000e+00  -7.1388779783099876e-02 -7.3295476123876907e-02 0.0000000000000000e+00  1.1687633122259539e-02 1.3369764994419921e-02 0.0000000000000000e+00  -3.3874974764950203e-03 -1.1241142656928685e-01 0.0000000000000000e+00  -1.3311390840712034e-03 -4.0446874406266341e-03 0.0000000000000000e+00  -8.8596912518369431e-02 -2.9794074713724392e-02 0.0000000000000000e+00  -1.0878740089338566e-01 -7.7211680364290741e-02 0.0000000000000000e+00  -1.3060212152464507e-01 -9.0516630246967197e-02 0.0000000000000000e+00  -4.7985059979458334e-03 -1.7504600367773962e-01 0.0000000000000000e+00  -1.8235805709193190e-01 -1.8449283054289889e-01 0.0000000000000000e+00  5.6934040616229585e-05 -8.4752056894115288e-02 0.0000000000000000e+00  -5.6138115478833375e-05 -7.3288763982869098e-02 0.0000000000000000e+00  -5.5563258302263947e-02 2.8006011777447757e-03 0.0000000000000000e+00  -5.9695000659619704e-02 -5.3850328160779788e-02 0.0000000000000000e+00  -1.0409876825668865e-02 -8.4722798019886594e-02 0.0000000000000000e+00  -1.4396155184384377e-02 -3.2687704590229022e-01 0.0000000000000000e+00  -1.0638531587026670e-01 -1.2071159444360688e-01 0.0000000000000000e+00  -7.9615493811062157e-02 -3.4201566577280662e-01 0.0000000000000000e+00  -5.2865429928514097e-02 -5.6556219031714164e-02 0.0000000000000000e+00  3.0504421501874324e-03 -3.7453548745935497e-03 0.0000000000000000e+00  -6.0174819156885426e-02 1.0162142655273660e-03 0.0000000000000000e+00  4.8039534372793083e-04 -6.9546101987323916e-02 0.0000000000000000e+00  -8.0974527058364554e-02 -7.4944721172828077e-02 0.0000000000000000e+00  -2.8709806632407318e-02 -2.8075394935983086e-02 0.0000000000000000e+00  -1.7410960785986286e-02 -1.0075095404902926e-01 0.0000000000000000e+00  -6.6346578362851821e-03 -1.1913237744335170e-01 0.0000000000000000e+00  4.0197027255490611e-02 1.8866636922989705e-02 0.0000000000000000e+00  -7.1789780913550736e-03 1.4417675456436513e-01 0.0000000000000000e+00  -6.4891072446764259e-02 -5.7207718410598567e-03 0.0000000000000000e+00  -2.0838913812783334e-02 -3.4174239742238807e-02 0.0000000000000000e+00  -4.0639320252000802e-02 -3.7013179280870195e-02 0.0000000000000000e+00  -2.7053697728898568e-02 -4.5462336271001012e-02 0.0000000000000000e+00  -4.5501971624659189e-03 -1.1060978294605422e-03 0.0000000000000000e+00  3.3337155060107842e-03 -1.3577054715950380e-04 0.0000000000000000e+00  -5.5733851012947935e-02 -3.1786238538756319e-02 0.0000000000000000e+00  -3.6174825357689296e-02 -2.6636619807210958e-04 0.0000000000000000e+00  -9.5487992985655537e-02 -2.5192795129338769e-03 0.0000000000000000e+00  4.3867215681590986e-02 2.6653884832963572e-02 0.0000000000000000e+00  -6.9565993915609338e-03 1.4745772656745899e-03 0.0000000000000000e+00  -7.4125725171610840e-03 6.6941830398829436e-04 0.0000000000000000e+00  2.3126715301122709e-02 -1.0489436745792399e-01 0.0000000000000000e+00  3.8511820208868633e-02 3.6292106444459703e-02 0.0000000000000000e+00  -1.7782039813607511e-02 -2.0660873199768764e-02 0.0000000000000000e+00  -9.1717597032998192e-03 -4.6357007946462104e-04 0.0000000000000000e+00  3.9098585318701702e-02 -6.3706832835404303e-04 0.0000000000000000e+00  3.6631888426734427e-04 -3.9736740764227368e-02 0.0000000000000000e+00  -2.2789973877301882e-02 -1.7512327290313628e-02 0.0000000000000000e+00  -8.7095806647615129e-03 -2.7100049951709840e-03 0.0000000000000000e+00  -2.0987372701885255e-04 6.0222420561837579e-04 0.0000000000000000e+00  -1.3778372775117967e-02 -7.1903620360298671e-03 0.0000000000000000e+00  -1.9699676327724510e-02 -1.0117453341415367e-02 0.0000000000000000e+00  -6.1749335059525117e-04 -5.8566729324587528e-04 0.0000000000000000e+00  -1.0120844913037391e-04 -1.0123571789147189e-03 0.0000000000000000e+00  -4.9765222338253004e-04 -7.9399319432249982e-04 0.0000000000000000e+00  -6.0638134665011688e-03 4.3901930696357311e-02 0.0000000000000000e+00  5.0081906292215567e-02 -1.4879963484747830e-01 0.0000000000000000e+00  -2.1909025557061059e-04 -1.8616658174997306e-02 0.0000000000000000e+00  9.5489140465255848e-02 -9.1159684328411981e-04 0.0000000000000000e+00  -4.4161286162178667e-02 -2.6091613231956544e-02 0.0000000000000000e+00  -9.4837081959694078e-03 -9.3315560751268109e-02 0.0000000000000000e+00  9.9916304680308654e-03 1.3475139643238307e-02 0.0000000000000000e+00  -3.5113975180023960e-02 -6.0722047017460937e-02 0.0000000000000000e+00  3.2779242375060594e-02 1.8367819472492172e-01 0.0000000000000000e+00  7.0091462388346404e-03 -9.8515215829045266e-02 0.0000000000000000e+00  1.7070970474619626e-02 1.0192347193148968e-01 0.0000000000000000e+00  1.2172181976359504e-02 -1.3161328492278668e-01 0.0000000000000000e+00  -2.0683336505828168e-02 -2.1099400289577928e-02 0.0000000000000000e+00  1.2909702573364892e-02 1.6843340409495713e-02 0.0000000000000000e+00  1.5034581879411606e-02 1.1553286288114548e-01 0.0000000000000000e+00  -3.7682689236900546e-02 -3.2391258239016216e-02 0.0000000000000000e+00  -1.1496247385265793e-01 -1.1480598610000647e-01 0.0000000000000000e+00  -1.1334785707370570e-01 8.9453105222172535e-03 0.0000000000000000e+00  -3.5521587715920941e-02 -2.8476915918798570e-02 0.0000000000000000e+00  5.4387111456365322e-02 4.0714201005215250e-02 0.0000000000000000e+00  -5.4472743107851496e-04 -8.6394878235637480e-04 0.0000000000000000e+00  -3.7414387913967937e-03 -2.5668532624262019e-01 0.0000000000000000e+00  -1.3413849117149973e-01 -1.2627314154629043e-01 0.0000000000000000e+00  -2.2974054230444685e-02 -4.3161856710609389e-02 0.0000000000000000e+00  1.6988253176093732e-02 -1.2779261760542013e-01 0.0000000000000000e+00  4.3365869421159803e-02 -3.9194566575462181e-01 0.0000000000000000e+00  -1.2278263720373724e-01 -5.9533023160586250e-02 0.0000000000000000e+00  -3.6605090410900230e-02 -4.7082480352426091e-02 0.0000000000000000e+00  7.3910299433571455e-02 -3.3201655432696389e-02 0.0000000000000000e+00  -7.6045557739471414e-02 -8.0990760418347463e-02 0.0000000000000000e+00  -2.1043957803967103e-02 -1.2869995109006327e-01 0.0000000000000000e+00  -5.6092257346892258e-02 -4.9035585413638016e-04 0.0000000000000000e+00  2.6042569537277718e-03 8.3806279083393248e-02 0.0000000000000000e+00  -1.6738386435432712e-02 -1.0858341419861636e-01 0.0000000000000000e+00  -2.8808637380700597e-01 -1.4857380247627572e+00 0.0000000000000000e+00  -5.6273493345385242e-02 -1.4592237947349185e-01 0.0000000000000000e+00  6.1765858983809513e-02 4.4696415537720906e-02 0.0000000000000000e+00  -2.8166988020039960e-02 -8.4574756595836076e-02 0.0000000000000000e+00  -4.7250721653404396e-02 -1.3326011834630752e-02 0.0000000000000000e+00  -2.2126626020589266e-02 -6.4233463794351700e-02 0.0000000000000000e+00  -1.35246652186483