<?xml version="1.0"?>
<VTKFile type="UnstructuredGrid"  version="0.1"  >
<UnstructuredGrid>
<Piece  NumberOfPoints="4372" NumberOfCells="8502">
<Points>
<DataArray  type="Float64"  NumberOfComponents="3"  format="ascii">-2 2 0  0 2 0  0 -2 0  -2 -2 0  -1.949999999999792 2 0  -1.899999999999584 2 0  -1.849999999999375 2 0  -1.799999999999167 2 0  -1.749999999999002 2 0  -1.699999999999306 2 0  -1.649999999999653 2 0  -1.6 2 0  -1.550000000000346 2 0  -1.500000000000693 2 0  -1.45000000000104 2 0  -1.400000000001387 2 0  -1.350000000001733 2 0  -1.30000000000208 2 0  -1.250000000002427 2 0  -1.200000000002774 2 0  -1.150000000003121 2 0  -1.100000000003467 2 0  -1.050000000003814 2 0  -1.000000000004117 2 0  -0.9500000000039528 2 0  -0.9000000000037447 2 0  -0.8500000000035368 2 0  -0.8000000000033287 2 0  -0.7500000000031206 2 0  -0.7000000000029127 2 0  -0.6500000000027044 2 0  -0.6000000000024965 2 0  -0.5500000000022884 2 0  -0.5000000000020806 2 0  -0.4500000000018725 2 0  -0.4000000000016644 2 0  -0.3500000000014563 2 0  -0.3000000000012482 2 0  -0.2500000000010403 2 0  -0.200000000000832 2 0  -0.1500000000006243 2 0  -0.100000000000416 2 0  -0.0500000000002081 2 0  0 1.950000000000139 0  0 1.900000000000277 0  0 1.850000000000416 0  0 1.800000000000555 0  0 1.750000000000693 0  0 1.700000000000832 0  0 1.650000000000971 0  0 1.60000000000111 0  0 1.550000000001248 0  0 1.500000000001387 0  0 1.450000000001526 0  0 1.400000000001664 0  0 1.350000000001803 0  0 1.300000000001942 0  0 1.250000000002081 0  0 1.200000000002219 0  0 1.150000000002358 0  0 1.100000000002496 0  0 1.050000000002635 0  0 1.000000000002774 0  0 0.9500000000029125 0  0 0.9000000000030515 0  0 0.8500000000031902 0  0 0.8000000000033287 0  0 0.7500000000034674 0  0 0.7000000000036062 0  0 0.6500000000037449 0  0 0.6000000000038836 0  0 0.5500000000040224 0  0 0.5000000000041611 0  0 0.4500000000042998 0  0 0.4000000000044384 0  0 0.3500000000045771 0  0 0.3000000000047156 0  0 0.2500000000048543 0  0 0.2000000000049929 0  0 0.1500000000051318 0  0 0.1000000000052705 0  0 0.05000000000540905 0  0 5.504485756091526e-12 0  0 -0.04999999999459082 0  0 -0.09999999999472964 0  0 -0.149999999994868 0  0 -0.1999999999950068 0  0 -0.2499999999951457 0  0 -0.299999999995284 0  0 -0.3499999999954229 0  0 -0.3999999999955617 0  0 -0.4499999999957001 0  0 -0.4999999999958389 0  0 -0.5499999999959777 0  0 -0.5999999999961165 0  0 -0.6499999999962549 0  0 -0.6999999999963937 0  0 -0.7499999999965326 0  0 -0.7999999999966709 0  0 -0.8499999999968098 0  0 -0.8999999999969486 0  0 -0.949999999997087 0  0 -0.9999999999972258 0  0 -1.049999999997365 0  0 -1.099999999997503 0  0 -1.149999999997642 0  0 -1.199999999997781 0  0 -1.249999999997919 0  0 -1.299999999998058 0  0 -1.349999999998198 0  0 -1.399999999998336 0  0 -1.449999999998474 0  0 -1.499999999998613 0  0 -1.549999999998751 0  0 -1.599999999998891 0  0 -1.64999999999903 0  0 -1.699999999999168 0  0 -1.749999999999306 0  0 -1.799999999999445 0  0 -1.849999999999584 0  0 -1.899999999999723 0  0 -1.949999999999862 0  -0.04999999999990573 -2 0  -0.0999999999997993 -2 0  -0.1499999999997056 -2 0  -0.1999999999996293 -2 0  -0.2499999999995475 -2 0  -0.2999999999994072 -2 0  -0.3499999999992615 -2 0  -0.3999999999991157 -2 0  -0.44999999999897 -2 0  -0.4999999999988242 -2 0  -0.5499999999986784 -2 0  -0.5999999999985328 -2 0  -0.649999999998387 -2 0  -0.6999999999982413 -2 0  -0.7499999999980955 -2 0  -0.7999999999979498 -2 0  -0.8499999999978042 -2 0  -0.8999999999976585 -2 0  -0.9499999999975127 -2 0  -0.9999999999973885 -2 0  -1.049999999997498 -2 0  -1.09999999999763 -2 0  -1.149999999997762 -2 0  -1.199999999997894 -2 0  -1.249999999998025 -2 0  -1.299999999998157 -2 0  -1.349999999998289 -2 0  -1.39999999999842 -2 0  -1.449999999998552 -2 0  -1.499999999998683 -2 0  -1.549999999998815 -2 0  -1.599999999998947 -2 0  -1.649999999999078 -2 0  -1.69999999999921 -2 0  -1.749999999999342 -2 0  -1.799999999999474 -2 0  -1.849999999999605 -2 0  -1.899999999999737 -2 0  -1.949999999999869 -2 0  -2 -1.950000000000139 0  -2 -1.900000000000277 0  -2 -1.850000000000416 0  -2 -1.800000000000555 0  -2 -1.750000000000693 0  -2 -1.700000000000832 0  -2 -1.650000000000971 0  -2 -1.60000000000111 0  -2 -1.550000000001248 0  -2 -1.500000000001387 0  -2 -1.450000000001526 0  -2 -1.400000000001664 0  -2 -1.350000000001803 0  -2 -1.300000000001942 0  -2 -1.250000000002081 0  -2 -1.200000000002219 0  -2 -1.150000000002358 0  -2 -1.100000000002496 0  -2 -1.050000000002635 0  -2 -1.000000000002774 0  -2 -0.9500000000029125 0  -2 -0.9000000000030515 0  -2 -0.8500000000031902 0  -2 -0.8000000000033287 0  -2 -0.7500000000034674 0  -2 -0.7000000000036062 0  -2 -0.6500000000037449 0  -2 -0.6000000000038836 0  -2 -0.5500000000040224 0  -2 -0.5000000000041611 0  -2 -0.4500000000042998 0  -2 -0.4000000000044384 0  -2 -0.3500000000045771 0  -2 -0.3000000000047156 0  -2 -0.2500000000048543 0  -2 -0.2000000000049929 0  -2 -0.1500000000051318 0  -2 -0.1000000000052705 0  -2 -0.05000000000540905 0  -2 -5.504485756091526e-12 0  -2 0.04999999999459082 0  -2 0.09999999999472964 0  -2 0.149999999994868 0  -2 0.1999999999950068 0  -2 0.2499999999951457 0  -2 0.299999999995284 0  -2 0.3499999999954229 0  -2 0.3999999999955617 0  -2 0.4499999999957001 0  -2 0.4999999999958389 0  -2 0.5499999999959777 0  -2 0.5999999999961165 0  -2 0.6499999999962549 0  -2 0.6999999999963937 0  -2 0.7499999999965326 0  -2 0.7999999999966709 0  -2 0.8499999999968098 0  -2 0.8999999999969486 0  -2 0.949999999997087 0  -2 0.9999999999972258 0  -2 1.049999999997365 0  -2 1.099999999997503 0  -2 1.149999999997642 0  -2 1.199999999997781 0  -2 1.249999999997919 0  -2 1.299999999998058 0  -2 1.349999999998198 0  -2 1.399999999998336 0  -2 1.449999999998474 0  -2 1.499999999998613 0  -2 1.549999999998751 0  -2 1.599999999998891 0  -2 1.64999999999903 0  -2 1.699999999999168 0  -2 1.749999999999306 0  -2 1.799999999999445 0  -2 1.849999999999584 0  -2 1.899999999999723 0  -2 1.949999999999862 0  -0.9991019297010011 -0.3216894116769606 0  -1.001123860021573 0.7747860510049681 0  -1.157001840564423 -1.161067247012082 0  -1.338027560051535 1.335779534439809 0  -0.6597222222209854 1.340277777778947 0  -0.6585505322915344 0.2210104638722434 0  -1.342670381551713 0.2273264508688188 0  -0.6282204758073073 -0.8120080430170664 0  -0.584236517600881 -1.424312893620663 0  -1.444216308265114 -0.6762220291217811 0  -0.5052068177397626 0.8617966625436217 0  -1.495725541732084 0.8726406067560636 0  -0.5012956875285356 -0.2537377131698332 0  -1.505964779037762 -1.506864731248248 0  -1.533439101629034 -0.2141932377592857 0  -0.9980909254944228 -1.563025322244478 0  -1.573871097078973 -1.076090339205781 0  -0.9938363905916023 1.574658399668859 0  -1.034823301857025 -0.7463046737786232 0  -1.613643420611705 1.613643420611667 0  -0.3789826634893113 1.622833641383097 0  -0.9969623469406674 0.06224895986291776 0  -0.9977570821219073 1.152964911765466 0  -0.3827586671415756 0.4981078379584384 0  -1.617241332858342 0.4981078379584687 0  -0.3735162279179589 -1.10055932464888 0  -0.9514697352838486 0.4195344991084976 0  -0.3671724871528862 -0.5890291676826473 0  -0.8024708669961921 -1.130631989953667 0  -0.3498086031259764 1.176326426441 0  -1.654591699695181 1.175475929606857 0  -0.3418462529951587 0.05839036814553086 0  -1.276352049535552 0.5646214960700082 0  -0.3455726757630372 -1.654274000872155 0  -1.662000930981631 0.09800841401402562 0  -0.7326605900058469 -0.5029780286614124 0  -0.6815317218188973 0.6015493889244842 0  -1.294915051768271 1.68349586060536 0  -0.6978609120161386 1.682418596511037 0  -1.69042813419972 -0.4820149800903958 0  -0.7177378365368432 -1.691938564923942 0  -1.295041566734205 -0.3964989221993158 0  -1.257425593209587 -1.693594420665469 0  -1.246383246782414 -0.1148360514526407 0  -0.7362449271051545 -0.05964032805167522 0  -1.707983706106591 -0.8099422821034401 0  -0.7716224277305496 0.9720234774828133 0  -1.275827556233888 1.059370830779667 0  -1.709731219610966 -1.713515019749574 0  -0.283604077223767 -1.378462113197051 0  -1.331628086330126 -0.9256871504417986 0  -1.718803648671523 -1.313287096736098 0  -1.237157326776588 -1.417624750871973 0  -0.2754377852160807 -0.8405670548436512 0  -0.2604914310470714 0.745077019249353 0  -1.729633983752603 0.7365041208839631 0  -0.2591591556650803 -0.3445128723686334 0  -0.2497705497594995 0.2862378673199174 0  -0.2571319926197782 1.401471300128245 0  -1.750457518478978 1.404891698644917 0  -0.8313391195977098 -1.383947161511035 0  -1.24247470005791 0.8083576983762071 0  -1.75762809210058 -0.121394575294928 0  -1.436009639427774 -1.277692839795198 0  -0.9951285024698884 -0.9801850598617781 0  -0.5860531098993602 1.102916873865959 0  -1.107154037528234 1.367740498542844 0  -1.765353655027761 0.3139359895551974 0  -0.239693234576285 0.9675382248711792 0  -1.762311524625569 0.9715314837693784 0  -1.453060458314344 0.01668426334404738 0  -1.118216683883963 0.2510494134873997 0  -1.487314750788142 -1.768895281943666 0  -0.775695807447912 -0.2851187916602083 0  -1.775021992875828 1.773058151300929 0  -0.2244440016626344 1.771853493176412 0  -0.8797519944267721 1.389822301404418 0  -1.220958717521525 -0.6178523500889427 0  -0.59343770640056 -1.180817576357191 0  -0.9262618789157869 -1.776942446977449 0  -0.2205428235968764 -0.1260615883490472 0  -1.10972339161439 1.777127575560661 0  -0.9394997616645768 -0.5365790009321401 0  -0.812081892264416 -0.7153463049796221 0  -1.783917055200667 -1.008716696077253 0  -0.515263853692324 -1.788606832309386 0  -0.8883686379713935 1.780240085569055 0  -1.545545177082075 0.2916466799431231 0  -1.490071498349099 1.777107893879804 0  -0.5133806951054479 1.777756514587614 0  -1.042544744196485 -1.335739934857762 0  -0.8641039527440014 0.2249999999994 0  -1.475046450324973 0.6546028915744984 0  -1.529677928948796 1.412892352790367 0  -0.4613578028330296 1.41527900122371 0  -1.790928681625402 -1.
[...]
<PointData  Vectors="f_1087-0"> 
<DataArray  type="Float64"  Name="f_1087-0"  NumberOfComponents="3" format="ascii">-3.9202834436568939e-04 -9.2318484429794746e-05 0.0000000000000000e+00  1.4031474916369506e-05 0.0000000000000000e+00 0.0000000000000000e+00  1.9219365536717455e-04 0.0000000000000000e+00 0.0000000000000000e+00  2.9575007216607874e-01 3.5171581066294105e-01 0.0000000000000000e+00  -1.2861489885576487e-04 -1.3501167502884536e-04 0.0000000000000000e+00  -1.5082580773742578e-05 -7.4483193614799616e-06 0.0000000000000000e+00  -1.8659431765926373e-03 -2.3011678143977465e-03 0.0000000000000000e+00  -1.1430436183236996e-04 7.9821781405081508e-04 0.0000000000000000e+00  -3.2845703499459765e-04 -1.5281475931330676e-04 0.0000000000000000e+00  -7.5755240163371737e-04 -2.3897211202476674e-04 0.0000000000000000e+00  1.9399159568438324e-04 -1.4374458421292325e-05 0.0000000000000000e+00  1.5069666481515182e-04 1.6803497373931817e-05 0.0000000000000000e+00  3.0927660153643756e-05 -1.8403547323920197e-06 0.0000000000000000e+00  1.3184640929833161e-04 1.7078391916239609e-05 0.0000000000000000e+00  4.2478379998292871e-05 2.2175066568720310e-05 0.0000000000000000e+00  2.1632910144600438e-05 1.0147712714953620e-05 0.0000000000000000e+00  -3.0969207527324033e-03 -2.3014469129004829e-04 0.0000000000000000e+00  2.2328482263544633e-04 2.7727984145096119e-05 0.0000000000000000e+00  3.3654132264697851e-04 7.7193766856361199e-05 0.0000000000000000e+00  1.8489187006759371e-05 8.1400941948280172e-05 0.0000000000000000e+00  -5.8409956986725596e-04 -7.3670036929233908e-04 0.0000000000000000e+00  -1.5318295727639799e-03 -7.7403141639778464e-04 0.0000000000000000e+00  2.1895908145035978e-03 1.1363459062031466e-03 0.0000000000000000e+00  2.5782351200530840e-06 -2.3723180940554315e-04 0.0000000000000000e+00  4.5308418757546035e-05 2.7037972668857754e-04 0.0000000000000000e+00  -3.0096691384254634e-05 1.1203496413958848e-04 0.0000000000000000e+00  3.5950422454400495e-05 6.5474702662070142e-04 0.0000000000000000e+00  1.4686889075831767e-04 1.2270929466754884e-05 0.0000000000000000e+00  3.9490514056057791e-04 4.7889437560138996e-05 0.0000000000000000e+00  1.0720870785528659e-04 3.2505315883520969e-04 0.0000000000000000e+00  7.7295841573507006e-05 8.9909930440649734e-05 0.0000000000000000e+00  -5.0147166672313819e-03 -4.0841166595153022e-03 0.0000000000000000e+00  1.4131391234613595e-03 -6.3892965861179919e-03 0.0000000000000000e+00  -1.0630794888421946e-03 4.3318544135162026e-03 0.0000000000000000e+00  -1.0740332596410678e-03 2.6692854982781799e-05 0.0000000000000000e+00  -1.5335465421178458e-03 3.2746305454194732e-03 0.0000000000000000e+00  -9.5273237849718983e-04 -1.0304039686839441e-03 0.0000000000000000e+00  -9.0184764988458723e-04 -9.9198501191304468e-04 0.0000000000000000e+00  -6.0615937552507175e-04 3.3024502995878920e-03 0.0000000000000000e+00  -1.3952025113208121e-04 6.9729064229580892e-05 0.0000000000000000e+00  9.1007721750653063e-05 6.9576406983468651e-04 0.0000000000000000e+00  1.0465842301426394e-04 3.0279395551398530e-04 0.0000000000000000e+00  1.0075289937186087e-04 5.1478186000905552e-05 0.0000000000000000e+00  2.2548937649370502e-05 0.0000000000000000e+00 0.0000000000000000e+00  -9.3733361229678524e-03 0.0000000000000000e+00 0.0000000000000000e+00  -9.1973659928164914e-04 0.0000000000000000e+00 0.0000000000000000e+00  -5.6441352826371038e-04 0.0000000000000000e+00 0.0000000000000000e+00  5.9137714393398807e-06 0.0000000000000000e+00 0.0000000000000000e+00  1.8073583647703177e-04 0.0000000000000000e+00 0.0000000000000000e+00  8.6459062188386037e-07 0.0000000000000000e+00 0.0000000000000000e+00  -2.1516684585410629e-06 0.0000000000000000e+00 0.0000000000000000e+00  1.2881959735861151e-04 0.0000000000000000e+00 0.0000000000000000e+00  2.2685546356489107e-04 0.0000000000000000e+00 0.0000000000000000e+00  6.9210940822785926e-05 0.0000000000000000e+00 0.0000000000000000e+00  3.4160903890879473e-03 0.0000000000000000e+00 0.0000000000000000e+00  1.5513280914816836e-03 0.0000000000000000e+00 0.0000000000000000e+00  5.5816979326627826e-04 0.0000000000000000e+00 0.0000000000000000e+00  2.2844782108150981e-04 0.0000000000000000e+00 0.0000000000000000e+00  -2.7520537503347813e-03 0.0000000000000000e+00 0.0000000000000000e+00  7.9451507884167405e-04 0.0000000000000000e+00 0.0000000000000000e+00  -3.8507581709582283e-04 0.0000000000000000e+00 0.0000000000000000e+00  1.5798957409268088e-03 0.0000000000000000e+00 0.0000000000000000e+00  -1.3719427241552973e-01 0.0000000000000000e+00 0.0000000000000000e+00  2.1909679677919684e-02 0.0000000000000000e+00 0.0000000000000000e+00  -1.6447619556629045e-02 0.0000000000000000e+00 0.0000000000000000e+00  1.7968619151123015e-02 0.0000000000000000e+00 0.0000000000000000e+00  -1.6442928550188730e-02 0.0000000000000000e+00 0.0000000000000000e+00  -1.5610123906683246e-02 0.0000000000000000e+00 0.0000000000000000e+00  1.1328039676187998e-02 0.0000000000000000e+00 0.0000000000000000e+00  1.2767617435345254e-04 0.0000000000000000e+00 0.0000000000000000e+00  4.3870899634256978e-02 0.0000000000000000e+00 0.0000000000000000e+00  1.2070650341224457e-02 0.0000000000000000e+00 0.0000000000000000e+00  -4.4470336262135854e-02 0.0000000000000000e+00 0.0000000000000000e+00  -4.2826863684739445e-02 0.0000000000000000e+00 0.0000000000000000e+00  -7.4029166160953725e-04 0.0000000000000000e+00 0.0000000000000000e+00  1.2180411959813861e-03 0.0000000000000000e+00 0.0000000000000000e+00  -7.0647567238506492e-01 0.0000000000000000e+00 0.0000000000000000e+00  -5.6245870203384903e-02 0.0000000000000000e+00 0.0000000000000000e+00  -9.3297283029968259e-02 0.0000000000000000e+00 0.0000000000000000e+00  -1.3677380963367998e-02 0.0000000000000000e+00 0.0000000000000000e+00  -4.1917072003637744e-03 0.0000000000000000e+00 0.0000000000000000e+00  7.7673166603744461e-04 0.0000000000000000e+00 0.0000000000000000e+00  -1.3546625604179017e-02 0.0000000000000000e+00 0.0000000000000000e+00  1.7310683133493837e-03 0.0000000000000000e+00 0.0000000000000000e+00  9.4048554222470673e-02 0.0000000000000000e+00 0.0000000000000000e+00  7.1080705048756609e-01 0.0000000000000000e+00 0.0000000000000000e+00  -6.8149059556827807e-01 0.0000000000000000e+00 0.0000000000000000e+00  3.8641068537134747e-02 0.0000000000000000e+00 0.0000000000000000e+00  -1.3326823926591000e+00 0.0000000000000000e+00 0.0000000000000000e+00  -1.4503690631074451e-02 0.0000000000000000e+00 0.0000000000000000e+00  -5.1861800503975881e-02 0.0000000000000000e+00 0.0000000000000000e+00  -2.0172984185952841e-02 0.0000000000000000e+00 0.0000000000000000e+00  -7.1455983388369559e-02 0.0000000000000000e+00 0.0000000000000000e+00  -6.3849470300457178e-02 0.0000000000000000e+00 0.0000000000000000e+00  1.1244604246381464e-01 0.0000000000000000e+00 0.0000000000000000e+00  -4.8844037110428083e-02 0.0000000000000000e+00 0.0000000000000000e+00  -1.2649284939066087e-02 0.0000000000000000e+00 0.0000000000000000e+00  3.4728439019328242e-04 0.0000000000000000e+00 0.0000000000000000e+00  -6.9821580379377510e-02 0.0000000000000000e+00 0.0000000000000000e+00  -9.2072985712021160e-03 0.0000000000000000e+00 0.0000000000000000e+00  -1.2110335835909631e-02 0.0000000000000000e+00 0.0000000000000000e+00  -9.4000827243040479e-03 0.0000000000000000e+00 0.0000000000000000e+00  -2.8369017775925883e-04 0.0000000000000000e+00 0.0000000000000000e+00  -4.1766004301835163e-03 0.0000000000000000e+00 0.0000000000000000e+00  -3.3057262257534956e-02 0.0000000000000000e+00 0.0000000000000000e+00  2.0329695363806719e-02 0.0000000000000000e+00 0.0000000000000000e+00  -1.3062265292382901e-02 0.0000000000000000e+00 0.0000000000000000e+00  1.9997381924641983e-02 0.0000000000000000e+00 0.0000000000000000e+00  1.4447195960419242e-02 0.0000000000000000e+00 0.0000000000000000e+00  2.3245015488459206e-03 0.0000000000000000e+00 0.0000000000000000e+00  -4.0449241593863136e-02 0.0000000000000000e+00 0.0000000000000000e+00  2.2352142956338659e-02 0.0000000000000000e+00 0.0000000000000000e+00  5.3026274557963667e-03 0.0000000000000000e+00 0.0000000000000000e+00  6.5118912202539927e-03 0.0000000000000000e+00 0.0000000000000000e+00  -4.6601570832607640e-05 0.0000000000000000e+00 0.0000000000000000e+00  9.1490788378755690e-03 0.0000000000000000e+00 0.0000000000000000e+00  -4.8376849005752906e-03 0.0000000000000000e+00 0.0000000000000000e+00  3.8633866190390824e-05 0.0000000000000000e+00 0.0000000000000000e+00  -6.9633587817380192e-03 0.0000000000000000e+00 0.0000000000000000e+00  1.2562235291437913e-04 0.0000000000000000e+00 0.0000000000000000e+00  -5.6189904334160183e-04 0.0000000000000000e+00 0.0000000000000000e+00  1.1860017600620812e-02 0.0000000000000000e+00 0.0000000000000000e+00  -8.2586473844489968e-04 5.0372462939346149e-04 0.0000000000000000e+00  -3.9977770518478007e-04 2.0440684326772984e-05 0.0000000000000000e+00  -6.3898419258374018e-04 -1.0994360973405504e-03 0.0000000000000000e+00  -9.3103738179407542e-04 1.2972285672128853e-03 0.0000000000000000e+00  3.5005272922242935e-04 -1.8767193876462990e-03 0.0000000000000000e+00  -1.5500590411899127e-03 2.8077642628434425e-04 0.0000000000000000e+00  -3.7563364779367191e-02 -1.1806839328069305e-03 0.0000000000000000e+00  -4.0897282187377954e-02 -1.4941843498615074e-03 0.0000000000000000e+00  -2.7129569775842678e-03 -2.9599665335884756e-03 0.0000000000000000e+00  1.5593944742822941e-02 1.7654555824023616e-02 0.0000000000000000e+00  -2.0653975598874119e-04 -6.2369373772964733e-02 0.0000000000000000e+00  -1.6404809788305677e-02 2.6687527444689153e-02 0.0000000000000000e+00  -4.1773999861850894e-03 -3.4826522853811733e-03 0.0000000000000000e+00  -5.2029950236799349e-02 -3.7305018417767594e-02 0.0000000000000000e+00  1.5760363135717244e-03 -6.0203182297479618e-02 0.0000000000000000e+00  -7.2409071913477285e-02 -8.1855161300448620e-02 0.0000000000000000e+00  -4.6166800898099276e-02 2.0317448710144459e-02 0.0000000000000000e+00  -1.0170579137050464e-01 -1.3073203221169932e-02 0.0000000000000000e+00  -1.6718769811606051e-02 -9.6067292033880161e-03 0.0000000000000000e+00  -6.8966221053098173e-02 5.4647737372774299e-02 0.0000000000000000e+00  1.0034563330475493e-01 -3.0082561149370446e-01 0.0000000000000000e+00  -4.4099167634087694e-02 -4.4764288469254884e-02 0.0000000000000000e+00  -5.9617798088317311e-02 -8.6322306813746801e-03 0.0000000000000000e+00  2.9846862147702293e-02 5.1572682239840358e-02 0.0000000000000000e+00  -1.0909095674627839e-01 -1.1261865869271596e-01 0.0000000000000000e+00  -1.3019946945071340e-02 -6.4358093717222009e-02 0.0000000000000000e+00  -2.8830981076998021e-02 -9.3455424956050276e-02 0.0000000000000000e+00  -1.4768539483064976e-02 -7.7401680484849342e-02 0.0000000000000000e+00  -1.4583015990270133e-02 -3.8110160167665101e-02 0.0000000000000000e+00  -3.3012307947336172e-02 -3.0735647403137254e-02 0.0000000000000000e+00  -3.5868412452836210e-03 -1.8564750107294123e-02 0.0000000000000000e+00  4.7866069837449712e-04 -1.0726287006392776e-02 0.0000000000000000e+00  -9.0813820616872498e-01 1.2172786712880102e-01 0.0000000000000000e+00  -6.7645256533480344e-02 -5.3806701967707010e-02 0.0000000000000000e+00  4.3577511641154580e-02 -1.5101870264242468e-03 0.0000000000000000e+00  -2.7914412635580126e-02 -3.4393568461708011e-02 0.0000000000000000e+00  -8.4332351089495633e-02 -7.8319397057832557e-02 0.0000000000000000e+00  1.4071535784514033e-01 7.4103567766789313e-01 0.0000000000000000e+00  9.4274210319556795e-01 3.7409717287485938e-01 0.0000000000000000e+00  7.0616978396078556e-01 2.7886417611633169e-01 0.0000000000000000e+00  5.8375178560091312e-01 2.7422041827069821e-01 0.0000000000000000e+00  6.1199236918080480e-01 6.2679855376765525e-01 0.0000000000000000e+00  -7.8167658059139355e-01 1.5659690207307200e-01 0.0000000000000000e+00  1.2200226221340145e-01 1.3252445663564458e-01 0.0000000000000000e+00  1.1770420574295873e-01 -1.1621316422465484e-02 0.0000000000000000e+00  -1.6247624469152195e-02 7.2588255389048326e-02 0.0000000000000000e+00  -6.0760032408960121e-04 3.6597335648452211e-05 0.0000000000000000e+00  -1.1268812781301753e-03 -4.6069285836531498e-04 0.0000000000000000e+00  5.4177974293313595e-04 -4.4757130501514040e-03 0.0000000000000000e+00  -1.4573467958321773e-03 -5.5631373196565727e-02 0.0000000000000000e+00  -4.4114297640588628e-03 1.4796672878272715e-02 0.0000000000000000e+00  -4.2977779496869853e-03 -4.5994133518634552e-03 0.0000000000000000e+00  4.2142610453236633e-02 3.2730315994984785e-02 0.0000000000000000e+00  1.3655014145162864e-01 6.0012057454915096e-03 0.0000000000000000e+00  5.2247220026710325e-02 1.0492571006966747e-01 0.0000000000000000e+00  1.4572104661417323e-01 -4.0734466826066233e-02 0.0000000000000000e+00  1.8727622181785314e-01 -2.9779669511291615e-02 0.0000000000000000e+00  -5.2117567421385580e-01 1.8232766397478226e-01 0.0000000000000000e+00  -1.3017587944421495e-02 1.6967125619791806e-01 0.0000000000000000e+00  1.8694639535489210e-01 -4.6172265078830030e-02 0.0000000000000000e+00  1.4295410449136028e-01 -4.6969961842508274e-03 0.0000000000000000e+00  1.7896194510228069e-04 7.9227052575353400e-04 0.0000000000000000e+00  -3.9343316016210911e-02 -5.1210087755361672e-03 0.0000000000000000e+00  1.1669939803868257e-02 -7.7198590005108517e-03 0.0000000000000000e+00  3.3242375788757064e-02 3.0536516862577356e-02 0.0000000000000000e+00  -8.6769544983606631e-02 -9.1072237184563060e-02 0.0000000000000000e+00  -1.0618818193453146e-01 4.6772979506394127e-02 0.0000000000000000e+00  8.7915501255678835e-04 -4.8609150991143400e-02 0.0000000000000000e+00  5.4978877533930652e-02 -1.0058009511832454e-01 0.0000000000000000e+00  -1.3533520771128163e-01 -1.3648795440381731e-01 0.0000000000000000e+00  -3.8383184175296389e-02 -1.3732175641721500e-01 0.0000000000000000e+00  2.2710147114581784e-03 8.8570986269935967e-02 0.0000000000000000e+00  5.7728420180169391e-04 1.0055067424941857e-03 0.0000000000000000e+00  -1.0215895012598592e-04 -3.6723643726994204e-03 0.0000000000000000e+00  -4.1618042670282622e-04 -1.6765409089425545e-02 0.0000000000000000e+00  -1.5171144271282135e-02 4.9311010760461711e-04 0.0000000000000000e+00  -2.7432970041636844e-02 -1.4391066027967536e-02 0.0000000000000000e+00  1.9668070870557382e-02 -1.5305264207756891e-02 0.0000000000000000e+00  4.1287875250048622e-02 -1.1988943558010895e-01 0.0000000000000000e+00  1.1336226437196090e-03 1.4110355849047845e-03 0.0000000000000000e+00  7.9055631760068801e-02 -1.3297885589066186e-01 0.0000000000000000e+00  6.9878470630697867e-02 5.2519222190793215e-03 0.0000000000000000e+00  7.5261249295199091e-05 -2.7439415808837363e-04 0.0000000000000000e+00  1.3887063948085842e-03 -1.3016071667924190e-03 0.0000000000000000e+00  3.2074634409335576e-05 1.5616517629466163e-03 0.0000000000000000e+00  -5.3639612931801611e-04 -3.9057613949951405e-04 0.0000000000000000e+00  -1.3877576651121404e-03 2.7539080861355966e-04 0.0000000000000000e+00  7.9367485124316121e-04 -6.2673665939649388e-03 0.0000000000000000e+00  1.1261002635012786e-03 -6.9247259984666692e-03 0.0000000000000000e+00  1.0958059999999352e-02 3.5759581449975007e-03 0.0000000000000000e+00  1.4199656127886442e-04 3.5395765050469562e-02 0.0000000000000000e+00  8.3122255708348476e-04 8.6008948373963935e-05 0.0000000000000000e+00  1.8407853547376609e-04 -6.7853185248749651e-05 0.0000000000000000e+00  -1.7141117254634551e-04 -1.1924250507506967e-04 0.0000000000000000e+00  2.2993985078377486e-04 -2.6466024947674336e-04 0.0000000000000000e+00  -8.7229827660244256e-05 7.7399852479779769e-05 0.0000000000000000e+00  1.5648670156628654e-04 3.9948837086163268e-05 0.0000000000000000e+00  -1.8470058772692274e-03 -1.0212328598978089e-03 0.0000000000000000e+00  -1.3339331784979651e-03 6.6217770294236755e-05 0.0000000000000000e+00  -4.7944704273583357e-03 -1.2685904133552368e-04 0.0000000000000000e+00  2.3177067015234033e-03 1.1560400596194221e-03 0.0000000000000000e+00  -3.6093546417091579e-04 1.2997296963570919e-04 0.0000000000000000e+00  -4.1744424906633298e-04 -3.3671259019825845e-04 0.0000000000000000e+00  8.3814515743413202e-04 -5.1954614454822919e-03 0.0000000000000000e+00  2.2208240971307133e-03 1.7844406097500855e-03 0.0000000000000000e+00  2.2457950272221052e-04 7.0507605608324305e-06 0.0000000000000000e+00  2.3646226129337881e-04 4.8632871697914458e-05 0.0000000000000000e+00  1.2228509760111213e-03 -2.7513722216839049e-05 0.0000000000000000e+00  -3.6913978687604516e-04 -1.8575920717818250e-03 0.0000000000000000e+00  3.0505411941987836e-04 2.4144897826869550e-04 0.0000000000000000e+00  -5.1289948255209630e-04 -8.2311117630485476e-05 0.0000000000000000e+00  4.1949203866381075e-06 1.1428562132116791e-05 0.0000000000000000e+00  1.5850485941464287e-04 8.5609936350021255e-05 0.0000000000000000e+00  -9.3149618737881979e-04 -4.4329285475836714e-04 0.0000000000000000e+00  1.3177366436058571e-05 7.8946648103585880e-05 0.0000000000000000e+00  3.2700623453484234e-07 1.5998363664078172e-05 0.0000000000000000e+00  5.1616992216208342e-06 -2.6674395764154151e-06 0.0000000000000000e+00  -3.0570668280978949e-04 1.7144579017742618e-03 0.0000000000000000e+00  -1.4337662942185619e-01 3.4955868575240183e-02 0.0000000000000000e+00  1.1209058622344279e-04 3.0680803178195519e-03 0.0000000000000000e+00  3.9768823449964200e-02 4.6409383904282117e-04 0.0000000000000000e+00  -6.5516633862051671e-04 2.9136134734518789e-04 0.0000000000000000e+00  8.4763639134906494e-04 -4.5520757332477152e-03 0.0000000000000000e+00  -5.3446265831840332e-02 -6.1202959569692142e-02 0.0000000000000000e+00  -4.0827452321802744e-02 3.1487445316734260e-03 0.0000000000000000e+00  -1.8533165083774436e-02 7.0905281380432850e-01 0.0000000000000000e+00  -1.0292521575976286e-01 -3.0960855276654958e-02 0.0000000000000000e+00  4.4220007622876051e-01 8.8619606990232613e-01 0.0000000000000000e+00  -1.0317854899831258e-03 -8.5833755462333470e-04 0.0000000000000000e+00  -1.4825124989694346e-05 9.7599236854249930e-05 0.0000000000000000e+00  -1.0890203757134526e-02 5.1459733768075347e-04 0.0000000000000000e+00  -1.3823945952202122e-02 6.0896768734734419e-01 0.0000000000000000e+00  -1.9666455934829571e-02 -1.9067278575701316e-02 0.0000000000000000e+00  -5.2175066337942985e-03 -5.0933189755450895e-03 0.0000000000000000e+00  2.7947368174899404e-02 -7.8596345635732950e-02 0.0000000000000000e+00  6.9036484675636355e-04 3.3367726144616013e-04 0.0000000000000000e+00  -7.7540445543842623e-02 -5.7034832244979454e-02 0.0000000000000000e+00  1.3331387140175476e-05 7.2621969486519623e-05 0.0000000000000000e+00  -2.0325325845321852e-04 -2.0037544480848189e-02 0.0000000000000000e+00  5.6682114746175953e-02 5.3204372749763647e-02 0.0000000000000000e+00  4.9335938545114529e-03 -5.5076536110578139e-04 0.0000000000000000e+00  -1.9404102169923389e-03 -2.7823318923102624e-03 0.0000000000000000e+00  4.4414713776763086e-02 -9.0810196707552068e-02 0.0000000000000000e+00  -2.8863109231767228e-02 -3.4043583544430593e-02 0.0000000000000000e+00  -3.0761183094641625e-02 -2.5008481239580913e-02 0.0000000000000000e+00  -5.9752537119290003e-02 2.4866040528829850e-02 0.0000000000000000e+00  -1.1474171507028197e-02 -9.8588421188530954e-03 0.0000000000000000e+00  5.6148696009032896e-03 -8.4479503414336410e-03 0.0000000000000000e+00  -1.3884046330609134e-03 8.2258991757295521e-05 0.0000000000000000e+00  -4.6163752455675279e-03 -1.2995502416936466e-01 0.0000000000000000e+00  5.4589638808473749e-03 -9.5630530792927635e-03 0.0000000000000000e+00  -3.6561603282408684e-03 1.9742646997314296e-02 0.0000000000000000e+00  -2.2255946495294905e-03 6.7281371290438645e-03 0.0000000000000000e+00  -2.7427079523167183e-02 3.9474493043337854e-02 0.0000000000000000e+00  3.1967388814362743e-02 -7.1381131054007424e-02 0.0000000000000000e+00  5.0263469217834585e-04 1.4071525772649571e-04 0.0000000000000000e+00  3.0041514384949682e-04 8.0698585557956908e-04 0.0000000000000000e+00  -7.6892861597004411e-02 -8.5489163640535576e-02 0.0000000000000000e+00  -9.9400211810003372e-02 -9.267861045