<?xml version="1.0"?>
<VTKFile type="UnstructuredGrid"  version="0.1"  >
<UnstructuredGrid>
<Piece  NumberOfPoints="4372" NumberOfCells="8502">
<Points>
<DataArray  type="Float64"  NumberOfComponents="3"  format="ascii">-2 2 0  0 2 0  0 -2 0  -2 -2 0  -1.949999999999792 2 0  -1.899999999999584 2 0  -1.849999999999375 2 0  -1.799999999999167 2 0  -1.749999999999002 2 0  -1.699999999999306 2 0  -1.649999999999653 2 0  -1.6 2 0  -1.550000000000346 2 0  -1.500000000000693 2 0  -1.45000000000104 2 0  -1.400000000001387 2 0  -1.350000000001733 2 0  -1.30000000000208 2 0  -1.250000000002427 2 0  -1.200000000002774 2 0  -1.150000000003121 2 0  -1.100000000003467 2 0  -1.050000000003814 2 0  -1.000000000004117 2 0  -0.9500000000039528 2 0  -0.9000000000037447 2 0  -0.8500000000035368 2 0  -0.8000000000033287 2 0  -0.7500000000031206 2 0  -0.7000000000029127 2 0  -0.6500000000027044 2 0  -0.6000000000024965 2 0  -0.5500000000022884 2 0  -0.5000000000020806 2 0  -0.4500000000018725 2 0  -0.4000000000016644 2 0  -0.3500000000014563 2 0  -0.3000000000012482 2 0  -0.2500000000010403 2 0  -0.200000000000832 2 0  -0.1500000000006243 2 0  -0.100000000000416 2 0  -0.0500000000002081 2 0  0 1.950000000000139 0  0 1.900000000000277 0  0 1.850000000000416 0  0 1.800000000000555 0  0 1.750000000000693 0  0 1.700000000000832 0  0 1.650000000000971 0  0 1.60000000000111 0  0 1.550000000001248 0  0 1.500000000001387 0  0 1.450000000001526 0  0 1.400000000001664 0  0 1.350000000001803 0  0 1.300000000001942 0  0 1.250000000002081 0  0 1.200000000002219 0  0 1.150000000002358 0  0 1.100000000002496 0  0 1.050000000002635 0  0 1.000000000002774 0  0 0.9500000000029125 0  0 0.9000000000030515 0  0 0.8500000000031902 0  0 0.8000000000033287 0  0 0.7500000000034674 0  0 0.7000000000036062 0  0 0.6500000000037449 0  0 0.6000000000038836 0  0 0.5500000000040224 0  0 0.5000000000041611 0  0 0.4500000000042998 0  0 0.4000000000044384 0  0 0.3500000000045771 0  0 0.3000000000047156 0  0 0.2500000000048543 0  0 0.2000000000049929 0  0 0.1500000000051318 0  0 0.1000000000052705 0  0 0.05000000000540905 0  0 5.504485756091526e-12 0  0 -0.04999999999459082 0  0 -0.09999999999472964 0  0 -0.149999999994868 0  0 -0.1999999999950068 0  0 -0.2499999999951457 0  0 -0.299999999995284 0  0 -0.3499999999954229 0  0 -0.3999999999955617 0  0 -0.4499999999957001 0  0 -0.4999999999958389 0  0 -0.5499999999959777 0  0 -0.5999999999961165 0  0 -0.6499999999962549 0  0 -0.6999999999963937 0  0 -0.7499999999965326 0  0 -0.7999999999966709 0  0 -0.8499999999968098 0  0 -0.8999999999969486 0  0 -0.949999999997087 0  0 -0.9999999999972258 0  0 -1.049999999997365 0  0 -1.099999999997503 0  0 -1.149999999997642 0  0 -1.199999999997781 0  0 -1.249999999997919 0  0 -1.299999999998058 0  0 -1.349999999998198 0  0 -1.399999999998336 0  0 -1.449999999998474 0  0 -1.499999999998613 0  0 -1.549999999998751 0  0 -1.599999999998891 0  0 -1.64999999999903 0  0 -1.699999999999168 0  0 -1.749999999999306 0  0 -1.799999999999445 0  0 -1.849999999999584 0  0 -1.899999999999723 0  0 -1.949999999999862 0  -0.04999999999990573 -2 0  -0.0999999999997993 -2 0  -0.1499999999997056 -2 0  -0.1999999999996293 -2 0  -0.2499999999995475 -2 0  -0.2999999999994072 -2 0  -0.3499999999992615 -2 0  -0.3999999999991157 -2 0  -0.44999999999897 -2 0  -0.4999999999988242 -2 0  -0.5499999999986784 -2 0  -0.5999999999985328 -2 0  -0.649999999998387 -2 0  -0.6999999999982413 -2 0  -0.7499999999980955 -2 0  -0.7999999999979498 -2 0  -0.8499999999978042 -2 0  -0.8999999999976585 -2 0  -0.9499999999975127 -2 0  -0.9999999999973885 -2 0  -1.049999999997498 -2 0  -1.09999999999763 -2 0  -1.149999999997762 -2 0  -1.199999999997894 -2 0  -1.249999999998025 -2 0  -1.299999999998157 -2 0  -1.349999999998289 -2 0  -1.39999999999842 -2 0  -1.449999999998552 -2 0  -1.499999999998683 -2 0  -1.549999999998815 -2 0  -1.599999999998947 -2 0  -1.649999999999078 -2 0  -1.69999999999921 -2 0  -1.749999999999342 -2 0  -1.799999999999474 -2 0  -1.849999999999605 -2 0  -1.899999999999737 -2 0  -1.949999999999869 -2 0  -2 -1.950000000000139 0  -2 -1.900000000000277 0  -2 -1.850000000000416 0  -2 -1.800000000000555 0  -2 -1.750000000000693 0  -2 -1.700000000000832 0  -2 -1.650000000000971 0  -2 -1.60000000000111 0  -2 -1.550000000001248 0  -2 -1.500000000001387 0  -2 -1.450000000001526 0  -2 -1.400000000001664 0  -2 -1.350000000001803 0  -2 -1.300000000001942 0  -2 -1.250000000002081 0  -2 -1.200000000002219 0  -2 -1.150000000002358 0  -2 -1.100000000002496 0  -2 -1.050000000002635 0  -2 -1.000000000002774 0  -2 -0.9500000000029125 0  -2 -0.9000000000030515 0  -2 -0.8500000000031902 0  -2 -0.8000000000033287 0  -2 -0.7500000000034674 0  -2 -0.7000000000036062 0  -2 -0.6500000000037449 0  -2 -0.6000000000038836 0  -2 -0.5500000000040224 0  -2 -0.5000000000041611 0  -2 -0.4500000000042998 0  -2 -0.4000000000044384 0  -2 -0.3500000000045771 0  -2 -0.3000000000047156 0  -2 -0.2500000000048543 0  -2 -0.2000000000049929 0  -2 -0.1500000000051318 0  -2 -0.1000000000052705 0  -2 -0.05000000000540905 0  -2 -5.504485756091526e-12 0  -2 0.04999999999459082 0  -2 0.09999999999472964 0  -2 0.149999999994868 0  -2 0.1999999999950068 0  -2 0.2499999999951457 0  -2 0.299999999995284 0  -2 0.3499999999954229 0  -2 0.3999999999955617 0  -2 0.4499999999957001 0  -2 0.4999999999958389 0  -2 0.5499999999959777 0  -2 0.5999999999961165 0  -2 0.6499999999962549 0  -2 0.6999999999963937 0  -2 0.7499999999965326 0  -2 0.7999999999966709 0  -2 0.8499999999968098 0  -2 0.8999999999969486 0  -2 0.949999999997087 0  -2 0.9999999999972258 0  -2 1.049999999997365 0  -2 1.099999999997503 0  -2 1.149999999997642 0  -2 1.199999999997781 0  -2 1.249999999997919 0  -2 1.299999999998058 0  -2 1.349999999998198 0  -2 1.399999999998336 0  -2 1.449999999998474 0  -2 1.499999999998613 0  -2 1.549999999998751 0  -2 1.599999999998891 0  -2 1.64999999999903 0  -2 1.699999999999168 0  -2 1.749999999999306 0  -2 1.799999999999445 0  -2 1.849999999999584 0  -2 1.899999999999723 0  -2 1.949999999999862 0  -0.9991019297010011 -0.3216894116769606 0  -1.001123860021573 0.7747860510049681 0  -1.157001840564423 -1.161067247012082 0  -1.338027560051535 1.335779534439809 0  -0.6597222222209854 1.340277777778947 0  -0.6585505322915344 0.2210104638722434 0  -1.342670381551713 0.2273264508688188 0  -0.6282204758073073 -0.8120080430170664 0  -0.584236517600881 -1.424312893620663 0  -1.444216308265114 -0.6762220291217811 0  -0.5052068177397626 0.8617966625436217 0  -1.495725541732084 0.8726406067560636 0  -0.5012956875285356 -0.2537377131698332 0  -1.505964779037762 -1.506864731248248 0  -1.533439101629034 -0.2141932377592857 0  -0.9980909254944228 -1.563025322244478 0  -1.573871097078973 -1.076090339205781 0  -0.9938363905916023 1.574658399668859 0  -1.034823301857025 -0.7463046737786232 0  -1.613643420611705 1.613643420611667 0  -0.3789826634893113 1.622833641383097 0  -0.9969623469406674 0.06224895986291776 0  -0.9977570821219073 1.152964911765466 0  -0.3827586671415756 0.4981078379584384 0  -1.617241332858342 0.4981078379584687 0  -0.3735162279179589 -1.10055932464888 0  -0.9514697352838486 0.4195344991084976 0  -0.3671724871528862 -0.5890291676826473 0  -0.8024708669961921 -1.130631989953667 0  -0.3498086031259764 1.176326426441 0  -1.654591699695181 1.175475929606857 0  -0.3418462529951587 0.05839036814553086 0  -1.276352049535552 0.5646214960700082 0  -0.3455726757630372 -1.654274000872155 0  -1.662000930981631 0.09800841401402562 0  -0.7326605900058469 -0.5029780286614124 0  -0.6815317218188973 0.6015493889244842 0  -1.294915051768271 1.68349586060536 0  -0.6978609120161386 1.682418596511037 0  -1.69042813419972 -0.4820149800903958 0  -0.7177378365368432 -1.691938564923942 0  -1.295041566734205 -0.3964989221993158 0  -1.257425593209587 -1.693594420665469 0  -1.246383246782414 -0.1148360514526407 0  -0.7362449271051545 -0.05964032805167522 0  -1.707983706106591 -0.8099422821034401 0  -0.7716224277305496 0.9720234774828133 0  -1.275827556233888 1.059370830779667 0  -1.709731219610966 -1.713515019749574 0  -0.283604077223767 -1.378462113197051 0  -1.331628086330126 -0.9256871504417986 0  -1.718803648671523 -1.313287096736098 0  -1.237157326776588 -1.417624750871973 0  -0.2754377852160807 -0.8405670548436512 0  -0.2604914310470714 0.745077019249353 0  -1.729633983752603 0.7365041208839631 0  -0.2591591556650803 -0.3445128723686334 0  -0.2497705497594995 0.2862378673199174 0  -0.2571319926197782 1.401471300128245 0  -1.750457518478978 1.404891698644917 0  -0.8313391195977098 -1.383947161511035 0  -1.24247470005791 0.8083576983762071 0  -1.75762809210058 -0.121394575294928 0  -1.436009639427774 -1.277692839795198 0  -0.9951285024698884 -0.9801850598617781 0  -0.5860531098993602 1.102916873865959 0  -1.107154037528234 1.367740498542844 0  -1.765353655027761 0.3139359895551974 0  -0.239693234576285 0.9675382248711792 0  -1.762311524625569 0.9715314837693784 0  -1.453060458314344 0.01668426334404738 0  -1.118216683883963 0.2510494134873997 0  -1.487314750788142 -1.768895281943666 0  -0.775695807447912 -0.2851187916602083 0  -1.775021992875828 1.773058151300929 0  -0.2244440016626344 1.771853493176412 0  -0.8797519944267721 1.389822301404418 0  -1.220958717521525 -0.6178523500889427 0  -0.59343770640056 -1.180817576357191 0  -0.9262618789157869 -1.776942446977449 0  -0.2205428235968764 -0.1260615883490472 0  -1.10972339161439 1.777127575560661 0  -0.9394997616645768 -0.5365790009321401 0  -0.812081892264416 -0.7153463049796221 0  -1.783917055200667 -1.008716696077253 0  -0.515263853692324 -1.788606832309386 0  -0.8883686379713935 1.780240085569055 0  -1.545545177082075 0.2916466799431231 0  -1.490071498349099 1.777107893879804 0  -0.5133806951054479 1.777756514587614 0  -1.042544744196485 -1.335739934857762 0  -0.8641039527440014 0.2249999999994 0  -1.475046450324973 0.6546028915744984 0  -1.529677928948796 1.412892352790367 0  -0.4613578028330296 1.41527900122371 0  -1.790928681625402 -1.
[...]
<PointData  Vectors="f_31-0"> 
<DataArray  type="Float64"  Name="f_31-0"  NumberOfComponents="3" format="ascii">-2.7813545622110917e-03 -3.8814226368589001e-03 0.0000000000000000e+00  0.0000000000000000e+00 -2.4454100754368158e-02 0.0000000000000000e+00  0.0000000000000000e+00 -2.4243741543540073e-02 0.0000000000000000e+00  2.7671953533516397e-03 -3.8840685169118554e-03 0.0000000000000000e+00  -2.8148807362365575e-03 -3.9959615788187361e-03 0.0000000000000000e+00  -2.8768982767464722e-03 -4.3173235021992410e-03 0.0000000000000000e+00  -2.9535373915912776e-03 -4.7370145461019114e-03 0.0000000000000000e+00  -3.0344561951985080e-03 -5.1877799182747453e-03 0.0000000000000000e+00  -3.1180809057107062e-03 -5.6458135586061340e-03 0.0000000000000000e+00  -3.2017215930628751e-03 -6.1034323358942705e-03 0.0000000000000000e+00  -3.2854530512577791e-03 -6.5595878007576151e-03 0.0000000000000000e+00  -3.3688141560507439e-03 -7.0138957081030892e-03 0.0000000000000000e+00  -3.4516542804178562e-03 -7.4665109010444795e-03 0.0000000000000000e+00  -3.5334920906331703e-03 -7.9176981360962184e-03 0.0000000000000000e+00  -3.6145665619714256e-03 -8.3676315116152245e-03 0.0000000000000000e+00  -3.6941030033522241e-03 -8.8161146111722603e-03 0.0000000000000000e+00  -3.7723411801752166e-03 -9.2631264468684815e-03 0.0000000000000000e+00  -3.8492217698556578e-03 -9.7086134974510713e-03 0.0000000000000000e+00  -3.9235738555264297e-03 -1.0152233497072416e-02 0.0000000000000000e+00  -3.9958766124684429e-03 -1.0593793145848188e-02 0.0000000000000000e+00  -4.0660055176361979e-03 -1.1033133397066259e-02 0.0000000000000000e+00  -4.1327089843189221e-03 -1.1469559137087833e-02 0.0000000000000000e+00  -4.1961374145891000e-03 -1.1903243681699727e-02 0.0000000000000000e+00  -4.2557802652340463e-03 -1.2333759332973876e-02 0.0000000000000000e+00  -4.3110871741646184e-03 -1.2760935869431608e-02 0.0000000000000000e+00  -4.3618213151853970e-03 -1.3184843912354111e-02 0.0000000000000000e+00  -4.4072884355762692e-03 -1.3605705488656361e-02 0.0000000000000000e+00  -4.4462564059421271e-03 -1.4023936189857002e-02 0.0000000000000000e+00  -4.4792225115148163e-03 -1.4440495345575099e-02 0.0000000000000000e+00  -4.5047851932356183e-03 -1.4856679732989807e-02 0.0000000000000000e+00  -4.5219506012787588e-03 -1.5273998847341654e-02 0.0000000000000000e+00  -4.5301020152733766e-03 -1.5695121102570674e-02 0.0000000000000000e+00  -4.5279614201171664e-03 -1.6123691972030521e-02 0.0000000000000000e+00  -4.5134372062436276e-03 -1.6564357635609740e-02 0.0000000000000000e+00  -4.4843922549208468e-03 -1.7023766786969884e-02 0.0000000000000000e+00  -4.4367408840533806e-03 -1.7511952467190575e-02 0.0000000000000000e+00  -4.3637996843170013e-03 -1.8043431040745350e-02 0.0000000000000000e+00  -4.2538058008586383e-03 -1.8640356342656022e-02 0.0000000000000000e+00  -4.0851770274105102e-03 -1.9337728521123674e-02 0.0000000000000000e+00  -3.8141695501041398e-03 -2.0188504898349825e-02 0.0000000000000000e+00  -3.3710515008973439e-03 -2.1257460161909457e-02 0.0000000000000000e+00  -2.6270822235396505e-03 -2.2557530266445212e-02 0.0000000000000000e+00  -1.4906948619416189e-03 -2.3850964406263168e-02 0.0000000000000000e+00  0.0000000000000000e+00 -2.2907411270953186e-02 0.0000000000000000e+00  0.0000000000000000e+00 -2.1578370907782553e-02 0.0000000000000000e+00  0.0000000000000000e+00 -2.0529422285706533e-02 0.0000000000000000e+00  0.0000000000000000e+00 -1.9715658490994548e-02 0.0000000000000000e+00  0.0000000000000000e+00 -1.9070882201373200e-02 0.0000000000000000e+00  0.0000000000000000e+00 -1.8544014291065152e-02 0.0000000000000000e+00  0.0000000000000000e+00 -1.8101597454565452e-02 0.0000000000000000e+00  0.0000000000000000e+00 -1.7721500574211423e-02 0.0000000000000000e+00  0.0000000000000000e+00 -1.7387938826616423e-02 0.0000000000000000e+00  0.0000000000000000e+00 -1.7089172434896497e-02 0.0000000000000000e+00  0.0000000000000000e+00 -1.6815154988851212e-02 0.0000000000000000e+00  0.0000000000000000e+00 -1.6557093952381963e-02 0.0000000000000000e+00  0.0000000000000000e+00 -1.6306610498762031e-02 0.0000000000000000e+00  0.0000000000000000e+00 -1.6055015533911050e-02 0.0000000000000000e+00  0.0000000000000000e+00 -1.5793567255907495e-02 0.0000000000000000e+00  0.0000000000000000e+00 -1.5511567744212033e-02 0.0000000000000000e+00  0.0000000000000000e+00 -1.5197520075407622e-02 0.0000000000000000e+00  0.0000000000000000e+00 -1.4837473917013318e-02 0.0000000000000000e+00  0.0000000000000000e+00 -1.4414547442377759e-02 0.0000000000000000e+00  0.0000000000000000e+00 -1.3908555401054054e-02 0.0000000000000000e+00  0.0000000000000000e+00 -1.3295229376524364e-02 0.0000000000000000e+00  0.0000000000000000e+00 -1.2543592508248280e-02 0.0000000000000000e+00  0.0000000000000000e+00 -1.1616923772271068e-02 0.0000000000000000e+00  0.0000000000000000e+00 -1.0469608050710294e-02 0.0000000000000000e+00  0.0000000000000000e+00 -9.0448158063621224e-03 0.0000000000000000e+00  0.0000000000000000e+00 -7.2791515657766323e-03 0.0000000000000000e+00  0.0000000000000000e+00 -5.0910870769467695e-03 0.0000000000000000e+00  0.0000000000000000e+00 -2.3883082547450159e-03 0.0000000000000000e+00  0.0000000000000000e+00 9.2881624959948741e-04 0.0000000000000000e+00  0.0000000000000000e+00 4.9666484798011447e-03 0.0000000000000000e+00  0.0000000000000000e+00 9.8297625278186140e-03 0.0000000000000000e+00  0.0000000000000000e+00 1.5584065004518690e-02 0.0000000000000000e+00  0.0000000000000000e+00 2.2249776750209303e-02 0.0000000000000000e+00  0.0000000000000000e+00 2.9742334339252371e-02 0.0000000000000000e+00  0.0000000000000000e+00 3.7829183206454363e-02 0.0000000000000000e+00  0.0000000000000000e+00 4.6095225338139541e-02 0.0000000000000000e+00  0.0000000000000000e+00 5.3912247108512702e-02 0.0000000000000000e+00  0.0000000000000000e+00 6.0543645531802012e-02 0.0000000000000000e+00  0.0000000000000000e+00 6.5177450707691112e-02 0.0000000000000000e+00  0.0000000000000000e+00 6.7206899045244350e-02 0.0000000000000000e+00  0.0000000000000000e+00 6.6325047674750684e-02 0.0000000000000000e+00  0.0000000000000000e+00 6.2657586530938600e-02 0.0000000000000000e+00  0.0000000000000000e+00 5.6697714027554177e-02 0.0000000000000000e+00  0.0000000000000000e+00 4.9203926626959493e-02 0.0000000000000000e+00  0.0000000000000000e+00 4.0970629641048105e-02 0.0000000000000000e+00  0.0000000000000000e+00 3.2681828177103731e-02 0.0000000000000000e+00  0.0000000000000000e+00 2.4859947607313079e-02 0.0000000000000000e+00  0.0000000000000000e+00 1.7805298017323997e-02 0.0000000000000000e+00  0.0000000000000000e+00 1.1661696310049798e-02 0.0000000000000000e+00  0.0000000000000000e+00 6.4396753387642794e-03 0.0000000000000000e+00  0.0000000000000000e+00 2.0888603584365748e-03 0.0000000000000000e+00  0.0000000000000000e+00 -1.4899639525189500e-03 0.0000000000000000e+00  0.0000000000000000e+00 -4.4055670809378562e-03 0.0000000000000000e+00  0.0000000000000000e+00 -6.7663085584291575e-03 0.0000000000000000e+00  0.0000000000000000e+00 -8.6687937023879943e-03 0.0000000000000000e+00  0.0000000000000000e+00 -1.0198538880334049e-02 0.0000000000000000e+00  0.0000000000000000e+00 -1.1428637283004230e-02 0.0000000000000000e+00  0.0000000000000000e+00 -1.2418422246554451e-02 0.0000000000000000e+00  0.0000000000000000e+00 -1.3218571804152040e-02 0.0000000000000000e+00  0.0000000000000000e+00 -1.3868763246021537e-02 0.0000000000000000e+00  0.0000000000000000e+00 -1.4402240917454043e-02 0.0000000000000000e+00  0.0000000000000000e+00 -1.4845574748816179e-02 0.0000000000000000e+00  0.0000000000000000e+00 -1.5220503335350568e-02 0.0000000000000000e+00  0.0000000000000000e+00 -1.5545022891246870e-02 0.0000000000000000e+00  0.0000000000000000e+00 -1.5834077116927980e-02 0.0000000000000000e+00  0.0000000000000000e+00 -1.6099933712601211e-02 0.0000000000000000e+00  0.0000000000000000e+00 -1.6353120881002724e-02 0.0000000000000000e+00  0.0000000000000000e+00 -1.6604023615574944e-02 0.0000000000000000e+00  0.0000000000000000e+00 -1.6860497053740073e-02 0.0000000000000000e+00  0.0000000000000000e+00 -1.7131474920979876e-02 0.0000000000000000e+00  0.0000000000000000e+00 -1.7425576784143224e-02 0.0000000000000000e+00  0.0000000000000000e+00 -1.7752637274986136e-02 0.0000000000000000e+00  0.0000000000000000e+00 -1.8124161320641492e-02 0.0000000000000000e+00  0.0000000000000000e+00 -1.8554900656745629e-02 0.0000000000000000e+00  0.0000000000000000e+00 -1.9065743484857251e-02 0.0000000000000000e+00  0.0000000000000000e+00 -1.9688209167721772e-02 0.0000000000000000e+00  0.0000000000000000e+00 -2.0467671863329973e-02 0.0000000000000000e+00  0.0000000000000000e+00 -2.1470630577003515e-02 0.0000000000000000e+00  0.0000000000000000e+00 -2.2744909819005059e-02 0.0000000000000000e+00  1.4575702924657463e-03 -2.3693678356118530e-02 0.0000000000000000e+00  2.5800047634468412e-03 -2.2494650596044021e-02 0.0000000000000000e+00  3.3142909904303321e-03 -2.1264599172101432e-02 0.0000000000000000e+00  3.7635765635775967e-03 -2.0233785702203834e-02 0.0000000000000000e+00  4.0398337559058124e-03 -1.9401298895820446e-02 0.0000000000000000e+00  4.2138795832322926e-03 -1.8712920098859040e-02 0.0000000000000000e+00  4.3280314602669916e-03 -1.8120020147432973e-02 0.0000000000000000e+00  4.4039071187108175e-03 -1.7590482478439848e-02 0.0000000000000000e+00  4.4537849240955966e-03 -1.7102806640699457e-02 0.0000000000000000e+00  4.4852272693539953e-03 -1.6643203021845861e-02 0.0000000000000000e+00  4.5004060355167104e-03 -1.6202340436481253e-02 0.0000000000000000e+00  4.5035368550310623e-03 -1.5773002865481889e-02 0.0000000000000000e+00  4.4960440143673158e-03 -1.5350662493964736e-02 0.0000000000000000e+00  4.4790517358772319e-03 -1.4931916264065884e-02 0.0000000000000000e+00  4.4541675130115761e-03 -1.4514555291310634e-02 0.0000000000000000e+00  4.4212806967788417e-03 -1.4096370725888914e-02 0.0000000000000000e+00  4.3823318490676640e-03 -1.3676032991239397e-02 0.0000000000000000e+00  4.3372901433254450e-03 -1.3253083605400756e-02 0.0000000000000000e+00  4.2867472372860507e-03 -1.2826808853209699e-02 0.0000000000000000e+00  4.2320387983286294e-03 -1.2397288153714027e-02 0.0000000000000000e+00  4.1722440343113622e-03 -1.1964333044865329e-02 0.0000000000000000e+00  4.1093783531869306e-03 -1.1527980980581767e-02 0.0000000000000000e+00  4.0429338527122240e-03 -1.1088653456942738e-02 0.0000000000000000e+00  3.9734635650403921e-03 -1.0646578111748626e-02 0.0000000000000000e+00  3.9020264285949979e-03 -1.0202196340183142e-02 0.0000000000000000e+00  3.8276402735818475e-03 -9.7556921260135796e-03 0.0000000000000000e+00  3.7516640947698977e-03 -9.3072286264408149e-03 0.0000000000000000e+00  3.6741138912484536e-03 -8.8571311453228396e-03 0.0000000000000000e+00  3.5951251440157692e-03 -8.4057173516685867e-03 0.0000000000000000e+00  3.5149636289096100e-03 -7.9527935397273371e-03 0.0000000000000000e+00  3.4333853492666943e-03 -7.4986104909612519e-03 0.0000000000000000e+00  3.3519515199129019e-03 -7.0427363271149549e-03 0.0000000000000000e+00  3.2687754650329711e-03 -6.5851039369930735e-03 0.0000000000000000e+00  3.1859560835450036e-03 -6.1255581376823860e-03 0.0000000000000000e+00  3.1024225169903039e-03 -5.6642276091931447e-03 0.0000000000000000e+00  3.0195226061736297e-03 -5.2021998085439057e-03 0.0000000000000000e+00  2.9391405885054707e-03 -4.7472925010707753e-03 0.0000000000000000e+00  2.8625000525541789e-03 -4.3234527976490529e-03 0.0000000000000000e+00  2.8013641366441593e-03 -3.9991077269610356e-03 0.0000000000000000e+00  2.5989730985621915e-03 -3.9202624643843711e-03 0.0000000000000000e+00  2.2277525561795056e-03 -3.9903096650536806e-03 0.0000000000000000e+00  1.7800608555027372e-03 -4.0816685451443898e-03 0.0000000000000000e+00  1.3181828291636076e-03 -4.1855728665958275e-03 0.0000000000000000e+00  8.6103391389118916e-04 -4.2980007386585967e-03 0.0000000000000000e+00  4.1278314008500806e-04 -4.4158336894601202e-03 0.0000000000000000e+00  -2.6009657209934184e-05 -4.5401984821205887e-03 0.0000000000000000e+00  -4.5531125148100065e-04 -4.6682045034621205e-03 0.0000000000000000e+00  -8.7423097937942048e-04 -4.8009154937745440e-03 0.0000000000000000e+00  -1.2822644508365497e-03 -4.9366649459357008e-03 0.0000000000000000e+00  -1.6780552811744389e-03 -5.0777849882804515e-03 0.0000000000000000e+00  -2.0608890595203108e-03 -5.2215641396285914e-03 0.0000000000000000e+00  -2.4291952891181022e-03 -5.3688557069375064e-03 0.0000000000000000e+00  -2.7810290159017842e-03 -5.5187663350733445e-03 0.0000000000000000e+00  -3.1147471457719832e-03 -5.6722573172274596e-03 0.0000000000000000e+00  -3.4286584650118686e-03 -5.8273707624460630e-03 0.0000000000000000e+00  -3.7202445059214117e-03 -5.9843660444744654e-03 0.0000000000000000e+00  -3.9874136073080688e-03 -6.1425805820399413e-03 0.0000000000000000e+00  -4.2276099339543733e-03 -6.3014213902983004e-03 0.0000000000000000e+00  -4.4382238383222404e-03 -6.4601272613188888e-03 0.0000000000000000e+00  -4.6165079997155627e-03 -6.6181046231465366e-03 0.0000000000000000e+00  -4.7596638242916435e-03 -6.7746254071101965e-03 0.0000000000000000e+00  -4.8650857852534160e-03 -6.9283619036777256e-03 0.0000000000000000e+00  -4.9297948587744287e-03 -7.0791153277603392e-03 0.0000000000000000e+00  -4.9514008078653665e-03 -7.2256975606910141e-03 0.0000000000000000e+00  -4.9275467198550416e-03 -7.3671873949092007e-03 0.0000000000000000e+00  -4.8560402547645001e-03 -7.5027462097842657e-03 0.0000000000000000e+00  -4.7357186708078562e-03 -7.6314739863506979e-03 0.0000000000000000e+00  -4.5648882542163966e-03 -7.7527950668738283e-03 0.0000000000000000e+00  -4.3437519758546669e-03 -7.8657047501309186e-03 0.0000000000000000e+00  -4.0725571673266821e-03 -7.9696908175065639e-03 0.0000000000000000e+00  -3.7523687228424099e-03 -8.0641357217114944e-03 0.0000000000000000e+00  -3.3859346870926542e-03 -8.1487076121302977e-03 0.0000000000000000e+00  -2.9758010289584729e-03 -8.2225461291266372e-03 0.0000000000000000e+00  -2.5263158898767941e-03 -8.2859049806768871e-03 0.0000000000000000e+00  -2.0425080137129667e-03 -8.3380340337233533e-03 0.0000000000000000e+00  -1.5304797428074056e-03 -8.3789244925652900e-03 0.0000000000000000e+00  -9.9715257294316953e-04 -8.4086240117623272e-03 0.0000000000000000e+00  -4.4925610334721678e-04 -8.4266223901982712e-03 0.0000000000000000e+00  1.0556488435146261e-04 -8.4332421583737244e-03 0.0000000000000000e+00  6.5932773951456192e-04 -8.4279625855679871e-03 0.0000000000000000e+00  1.2038234161126397e-03 -8.4109537616304450e-03 0.0000000000000000e+00  1.7318184938679474e-03 -8.3824097525252179e-03 0.0000000000000000e+00  2.2361420677222315e-03 -8.3425383329856287e-03 0.0000000000000000e+00  2.7101496371549172e-03 -8.2904476656918309e-03 0.0000000000000000e+00  3.1488061498683791e-03 -8.2275857545574330e-03 0.0000000000000000e+00  3.5462926560527086e-03 -8.1535500992256493e-03 0.0000000000000000e+00  3.8996245114577238e-03 -8.0687030800724521e-03 0.0000000000000000e+00  4.2054453744138336e-03 -7.9733859364920726e-03 0.0000000000000000e+00  4.4619989914989264e-03 -7.8684859381867572e-03 0.0000000000000000e+00  4.6681727897378072e-03 -7.7544481825324446e-03 0.0000000000000000e+00  4.8240413969123331e-03 -7.6319541925405432e-03 0.0000000000000000e+00  4.9298904275268864e-03 -7.5016556916236016e-03 0.0000000000000000e+00  4.9871568861374694e-03 -7.3647416447869618e-03 0.0000000000000000e+00  4.9976999483356968e-03 -7.2218313774270850e-03 0.0000000000000000e+00  4.9632524400472725e-03 -7.0739351540062079e-03 0.0000000000000000e+00  4.8866298248827133e-03 -6.9220518177920574e-03 0.0000000000000000e+00  4.7703549204909813e-03 -6.7669565632632791e-03 0.0000000000000000e+00  4.6172179031242671e-03 -6.6096397371289651e-03 0.0000000000000000e+00  4.4300676523996363e-03 -6.4508369691629909e-03 0.0000000000000000e+00  4.2115625395522018e-03 -6.2915995520381497e-03 0.0000000000000000e+00  3.9644026206865825e-03 -6.1322875320551900e-03 0.0000000000000000e+00  3.6912361600378589e-03 -5.9739355299574300e-03 0.0000000000000000e+00  3.3945965339329787e-03 -5.8164905459942807e-03 0.0000000000000000e+00  3.0765992143085650e-03 -5.6614466894171628e-03 0.0000000000000000e+00  2.7394076014817990e-03 -5.5086945879174454e-03 0.0000000000000000e+00  2.3849790995107861e-03 -5.3584771153541311e-03 0.0000000000000000e+00  2.0149551861870238e-03 -5.2118133924026703e-03 0.0000000000000000e+00  1.6311504195899551e-03 -5.0681445217687655e-03 0.0000000000000000e+00  1.2346834833010464e-03 -4.9284873559648701e-03 0.0000000000000000e+00  8.2678700144734967e-04 -4.7922543201754080e-03 0.0000000000000000e+00  4.0860997655552502e-04 -4.6606711868363709e-03 0.0000000000000000e+00  -1.9265110588130226e-05 -4.5330122226960460e-03 0.0000000000000000e+00  -4.5623676181470198e-04 -4.4101608051861961e-03 0.0000000000000000e+00  -9.0198194866939439e-04 -4.2924256652830403e-03 0.0000000000000000e+00  -1.3561088477661281e-03 -4.1809305802187335e-03 0.0000000000000000e+00  -1.8135479005418776e-03 -4.0768942976125338e-03 0.0000000000000000e+00  -2.2550290493764686e-03 -3.9873158260609800e-03 0.0000000000000000e+00  -2.6193675322619234e-03 -3.9173083796744676e-03 0.0000000000000000e+00  -1.1666804306665892e-02 -1.2907226554957551e-02 0.0000000000000000e+00  5.1930677157977006e-03 -1.5970428178954568e-02 0.0000000000000000e+00  -2.1960371626958430e-03 -1.2604829826626009e-02 0.0000000000000000e+00  1.0938878153458644e-03 -1.0515981828769051e-02 0.0000000000000000e+00  -8.0769182930345721e-04 -1.5760733637761787e-02 0.0000000000000000e+00  8.3284962524012192e-03 -6.3187683957414281e-02 0.0000000000000000e+00  4.4746605511789047e-03 -6.4661165462010931e-03 0.0000000000000000e+00  2.6253019796335363e-04 -2.0994546461247921e-02 0.0000000000000000e+00  1.2524555316212830e-03 -1.5995488055519109e-02 0.0000000000000000e+00  -5.2742324118364896e-03 -9.2593651883053508e-03 0.0000000000000000e+00  -2.2443311854556708e-03 -1.9127661876363913e-02 0.0000000000000000e+00  4.3438545981234001e-03 -9.4378518213656913e-03 0.0000000000000000e+00  3.3591769048488207e-02 -7.7069394100220637e-02 0.0000000000000000e+00  -1.3026551744399514e-04 -8.7462747369912337e-03 0.0000000000000000e+00  -2.6956881460397644e-03 -6.4295902571846839e-03 0.0000000000000000e+00  1.2548716671547289e-03 -1.3043787623982228e-02 0.0000000000000000e+00  -3.2831167947830618e-03 -8.7796446475443303e-03 0.0000000000000000e+00  -1.4156151387312848e-03 -1.2993281813881222e-02 0.0000000000000000e+00  -5.9798117026951146e-03 -1.5366327344243149e-02 0.0000000000000000e+00  -5.7323019408747242e-04 -7.5799507628955777e-03 0.0000000000000000e+00  -2.0433467450192890e-03 -1.6860011390407353e-02 0.0000000000000000e+00  5.0314720391463610e-03 -6.5282569994258187e-03 0.0000000000000000e+00  1.6307887770036457e-03 -1.4177634555232462e-02 0.0000000000000000e+00  -1.7338988310822645e-02 -2.3338938919117737e-02 0.0000000000000000e+00  4.5433463899352631e-03 -7.8355697448512767e-03 0.0000000000000000e+00  1.5576014703572582e-03 -1.6685768977026876e-02 0.0000000000000000e+00  1.1090396458083540e-02 -1.7928349469392715e-02 0.0000000000000000e+00  1.2998416795941416e-02 -2.0471162223851442e-02 0.0000000000000000e+00  -8.8521379510953196e-04 -1.6078449657694983e-02 0.0000000000000000e+00  -1.3012510973787934e-03 -1.6399383689439353e-02 0.0000000000000000e+00  2.7202261758042809e-03 -8.0414893752917809e-03 0.0000000000000000e+00  -3.6128417008461033e-02 -7.3612597040375507e-03 0.0000000000000000e+00  6.5723637093142873e-03 -1.0509133361207486e-02 0.0000000000000000e+00  2.0685035722103379e-03 -1.7168028253859845e-02 0.0000000000000000e+00  1.2855741301633329e-03 -6.7349197003229054e-03 0.0000000000000000e+00  -6.4384472673745460e-03 -2.9953733578894946e-02 0.0000000000000000e+00  1.5785313603013051e-03 -2.6505990489646847e-02 0.0000000000000000e+00  -1.7124069789146898e-03 -1.0261117720774381e-02 0.0000000000000000e+00  -2.5854894156423711e-03 -1.5020506233960845e-02 0.0000000000000000e+00  -4.