<?xml version="1.0"?>
<VTKFile type="UnstructuredGrid"  version="0.1"  >
<UnstructuredGrid>
<Piece  NumberOfPoints="4372" NumberOfCells="8502">
<Points>
<DataArray  type="Float64"  NumberOfComponents="3"  format="ascii">-2 2 0  0 2 0  0 -2 0  -2 -2 0  -1.949999999999792 2 0  -1.899999999999584 2 0  -1.849999999999375 2 0  -1.799999999999167 2 0  -1.749999999999002 2 0  -1.699999999999306 2 0  -1.649999999999653 2 0  -1.6 2 0  -1.550000000000346 2 0  -1.500000000000693 2 0  -1.45000000000104 2 0  -1.400000000001387 2 0  -1.350000000001733 2 0  -1.30000000000208 2 0  -1.250000000002427 2 0  -1.200000000002774 2 0  -1.150000000003121 2 0  -1.100000000003467 2 0  -1.050000000003814 2 0  -1.000000000004117 2 0  -0.9500000000039528 2 0  -0.9000000000037447 2 0  -0.8500000000035368 2 0  -0.8000000000033287 2 0  -0.7500000000031206 2 0  -0.7000000000029127 2 0  -0.6500000000027044 2 0  -0.6000000000024965 2 0  -0.5500000000022884 2 0  -0.5000000000020806 2 0  -0.4500000000018725 2 0  -0.4000000000016644 2 0  -0.3500000000014563 2 0  -0.3000000000012482 2 0  -0.2500000000010403 2 0  -0.200000000000832 2 0  -0.1500000000006243 2 0  -0.100000000000416 2 0  -0.0500000000002081 2 0  0 1.950000000000139 0  0 1.900000000000277 0  0 1.850000000000416 0  0 1.800000000000555 0  0 1.750000000000693 0  0 1.700000000000832 0  0 1.650000000000971 0  0 1.60000000000111 0  0 1.550000000001248 0  0 1.500000000001387 0  0 1.450000000001526 0  0 1.400000000001664 0  0 1.350000000001803 0  0 1.300000000001942 0  0 1.250000000002081 0  0 1.200000000002219 0  0 1.150000000002358 0  0 1.100000000002496 0  0 1.050000000002635 0  0 1.000000000002774 0  0 0.9500000000029125 0  0 0.9000000000030515 0  0 0.8500000000031902 0  0 0.8000000000033287 0  0 0.7500000000034674 0  0 0.7000000000036062 0  0 0.6500000000037449 0  0 0.6000000000038836 0  0 0.5500000000040224 0  0 0.5000000000041611 0  0 0.4500000000042998 0  0 0.4000000000044384 0  0 0.3500000000045771 0  0 0.3000000000047156 0  0 0.2500000000048543 0  0 0.2000000000049929 0  0 0.1500000000051318 0  0 0.1000000000052705 0  0 0.05000000000540905 0  0 5.504485756091526e-12 0  0 -0.04999999999459082 0  0 -0.09999999999472964 0  0 -0.149999999994868 0  0 -0.1999999999950068 0  0 -0.2499999999951457 0  0 -0.299999999995284 0  0 -0.3499999999954229 0  0 -0.3999999999955617 0  0 -0.4499999999957001 0  0 -0.4999999999958389 0  0 -0.5499999999959777 0  0 -0.5999999999961165 0  0 -0.6499999999962549 0  0 -0.6999999999963937 0  0 -0.7499999999965326 0  0 -0.7999999999966709 0  0 -0.8499999999968098 0  0 -0.8999999999969486 0  0 -0.949999999997087 0  0 -0.9999999999972258 0  0 -1.049999999997365 0  0 -1.099999999997503 0  0 -1.149999999997642 0  0 -1.199999999997781 0  0 -1.249999999997919 0  0 -1.299999999998058 0  0 -1.349999999998198 0  0 -1.399999999998336 0  0 -1.449999999998474 0  0 -1.499999999998613 0  0 -1.549999999998751 0  0 -1.599999999998891 0  0 -1.64999999999903 0  0 -1.699999999999168 0  0 -1.749999999999306 0  0 -1.799999999999445 0  0 -1.849999999999584 0  0 -1.899999999999723 0  0 -1.949999999999862 0  -0.04999999999990573 -2 0  -0.0999999999997993 -2 0  -0.1499999999997056 -2 0  -0.1999999999996293 -2 0  -0.2499999999995475 -2 0  -0.2999999999994072 -2 0  -0.3499999999992615 -2 0  -0.3999999999991157 -2 0  -0.44999999999897 -2 0  -0.4999999999988242 -2 0  -0.5499999999986784 -2 0  -0.5999999999985328 -2 0  -0.649999999998387 -2 0  -0.6999999999982413 -2 0  -0.7499999999980955 -2 0  -0.7999999999979498 -2 0  -0.8499999999978042 -2 0  -0.8999999999976585 -2 0  -0.9499999999975127 -2 0  -0.9999999999973885 -2 0  -1.049999999997498 -2 0  -1.09999999999763 -2 0  -1.149999999997762 -2 0  -1.199999999997894 -2 0  -1.249999999998025 -2 0  -1.299999999998157 -2 0  -1.349999999998289 -2 0  -1.39999999999842 -2 0  -1.449999999998552 -2 0  -1.499999999998683 -2 0  -1.549999999998815 -2 0  -1.599999999998947 -2 0  -1.649999999999078 -2 0  -1.69999999999921 -2 0  -1.749999999999342 -2 0  -1.799999999999474 -2 0  -1.849999999999605 -2 0  -1.899999999999737 -2 0  -1.949999999999869 -2 0  -2 -1.950000000000139 0  -2 -1.900000000000277 0  -2 -1.850000000000416 0  -2 -1.800000000000555 0  -2 -1.750000000000693 0  -2 -1.700000000000832 0  -2 -1.650000000000971 0  -2 -1.60000000000111 0  -2 -1.550000000001248 0  -2 -1.500000000001387 0  -2 -1.450000000001526 0  -2 -1.400000000001664 0  -2 -1.350000000001803 0  -2 -1.300000000001942 0  -2 -1.250000000002081 0  -2 -1.200000000002219 0  -2 -1.150000000002358 0  -2 -1.100000000002496 0  -2 -1.050000000002635 0  -2 -1.000000000002774 0  -2 -0.9500000000029125 0  -2 -0.9000000000030515 0  -2 -0.8500000000031902 0  -2 -0.8000000000033287 0  -2 -0.7500000000034674 0  -2 -0.7000000000036062 0  -2 -0.6500000000037449 0  -2 -0.6000000000038836 0  -2 -0.5500000000040224 0  -2 -0.5000000000041611 0  -2 -0.4500000000042998 0  -2 -0.4000000000044384 0  -2 -0.3500000000045771 0  -2 -0.3000000000047156 0  -2 -0.2500000000048543 0  -2 -0.2000000000049929 0  -2 -0.1500000000051318 0  -2 -0.1000000000052705 0  -2 -0.05000000000540905 0  -2 -5.504485756091526e-12 0  -2 0.04999999999459082 0  -2 0.09999999999472964 0  -2 0.149999999994868 0  -2 0.1999999999950068 0  -2 0.2499999999951457 0  -2 0.299999999995284 0  -2 0.3499999999954229 0  -2 0.3999999999955617 0  -2 0.4499999999957001 0  -2 0.4999999999958389 0  -2 0.5499999999959777 0  -2 0.5999999999961165 0  -2 0.6499999999962549 0  -2 0.6999999999963937 0  -2 0.7499999999965326 0  -2 0.7999999999966709 0  -2 0.8499999999968098 0  -2 0.8999999999969486 0  -2 0.949999999997087 0  -2 0.9999999999972258 0  -2 1.049999999997365 0  -2 1.099999999997503 0  -2 1.149999999997642 0  -2 1.199999999997781 0  -2 1.249999999997919 0  -2 1.299999999998058 0  -2 1.349999999998198 0  -2 1.399999999998336 0  -2 1.449999999998474 0  -2 1.499999999998613 0  -2 1.549999999998751 0  -2 1.599999999998891 0  -2 1.64999999999903 0  -2 1.699999999999168 0  -2 1.749999999999306 0  -2 1.799999999999445 0  -2 1.849999999999584 0  -2 1.899999999999723 0  -2 1.949999999999862 0  -0.9991019297010011 -0.3216894116769606 0  -1.001123860021573 0.7747860510049681 0  -1.157001840564423 -1.161067247012082 0  -1.338027560051535 1.335779534439809 0  -0.6597222222209854 1.340277777778947 0  -0.6585505322915344 0.2210104638722434 0  -1.342670381551713 0.2273264508688188 0  -0.6282204758073073 -0.8120080430170664 0  -0.584236517600881 -1.424312893620663 0  -1.444216308265114 -0.6762220291217811 0  -0.5052068177397626 0.8617966625436217 0  -1.495725541732084 0.8726406067560636 0  -0.5012956875285356 -0.2537377131698332 0  -1.505964779037762 -1.506864731248248 0  -1.533439101629034 -0.2141932377592857 0  -0.9980909254944228 -1.563025322244478 0  -1.573871097078973 -1.076090339205781 0  -0.9938363905916023 1.574658399668859 0  -1.034823301857025 -0.7463046737786232 0  -1.613643420611705 1.613643420611667 0  -0.3789826634893113 1.622833641383097 0  -0.9969623469406674 0.06224895986291776 0  -0.9977570821219073 1.152964911765466 0  -0.3827586671415756 0.4981078379584384 0  -1.617241332858342 0.4981078379584687 0  -0.3735162279179589 -1.10055932464888 0  -0.9514697352838486 0.4195344991084976 0  -0.3671724871528862 -0.5890291676826473 0  -0.8024708669961921 -1.130631989953667 0  -0.3498086031259764 1.176326426441 0  -1.654591699695181 1.175475929606857 0  -0.3418462529951587 0.05839036814553086 0  -1.276352049535552 0.5646214960700082 0  -0.3455726757630372 -1.654274000872155 0  -1.662000930981631 0.09800841401402562 0  -0.7326605900058469 -0.5029780286614124 0  -0.6815317218188973 0.6015493889244842 0  -1.294915051768271 1.68349586060536 0  -0.6978609120161386 1.682418596511037 0  -1.69042813419972 -0.4820149800903958 0  -0.7177378365368432 -1.691938564923942 0  -1.295041566734205 -0.3964989221993158 0  -1.257425593209587 -1.693594420665469 0  -1.246383246782414 -0.1148360514526407 0  -0.7362449271051545 -0.05964032805167522 0  -1.707983706106591 -0.8099422821034401 0  -0.7716224277305496 0.9720234774828133 0  -1.275827556233888 1.059370830779667 0  -1.709731219610966 -1.713515019749574 0  -0.283604077223767 -1.378462113197051 0  -1.331628086330126 -0.9256871504417986 0  -1.718803648671523 -1.313287096736098 0  -1.237157326776588 -1.417624750871973 0  -0.2754377852160807 -0.8405670548436512 0  -0.2604914310470714 0.745077019249353 0  -1.729633983752603 0.7365041208839631 0  -0.2591591556650803 -0.3445128723686334 0  -0.2497705497594995 0.2862378673199174 0  -0.2571319926197782 1.401471300128245 0  -1.750457518478978 1.404891698644917 0  -0.8313391195977098 -1.383947161511035 0  -1.24247470005791 0.8083576983762071 0  -1.75762809210058 -0.121394575294928 0  -1.436009639427774 -1.277692839795198 0  -0.9951285024698884 -0.9801850598617781 0  -0.5860531098993602 1.102916873865959 0  -1.107154037528234 1.367740498542844 0  -1.765353655027761 0.3139359895551974 0  -0.239693234576285 0.9675382248711792 0  -1.762311524625569 0.9715314837693784 0  -1.453060458314344 0.01668426334404738 0  -1.118216683883963 0.2510494134873997 0  -1.487314750788142 -1.768895281943666 0  -0.775695807447912 -0.2851187916602083 0  -1.775021992875828 1.773058151300929 0  -0.2244440016626344 1.771853493176412 0  -0.8797519944267721 1.389822301404418 0  -1.220958717521525 -0.6178523500889427 0  -0.59343770640056 -1.180817576357191 0  -0.9262618789157869 -1.776942446977449 0  -0.2205428235968764 -0.1260615883490472 0  -1.10972339161439 1.777127575560661 0  -0.9394997616645768 -0.5365790009321401 0  -0.812081892264416 -0.7153463049796221 0  -1.783917055200667 -1.008716696077253 0  -0.515263853692324 -1.788606832309386 0  -0.8883686379713935 1.780240085569055 0  -1.545545177082075 0.2916466799431231 0  -1.490071498349099 1.777107893879804 0  -0.5133806951054479 1.777756514587614 0  -1.042544744196485 -1.335739934857762 0  -0.8641039527440014 0.2249999999994 0  -1.475046450324973 0.6546028915744984 0  -1.529677928948796 1.412892352790367 0  -0.4613578028330296 1.41527900122371 0  -1.790928681625402 -1.
[...]
<PointData  Vectors="f_31-0"> 
<DataArray  type="Float64"  Name="f_31-0"  NumberOfComponents="3" format="ascii">-2.4427597323550933e-03 -4.4957744871865135e-03 0.0000000000000000e+00  0.0000000000000000e+00 -2.2392957004157207e-02 0.0000000000000000e+00  0.0000000000000000e+00 -2.2146790847360296e-02 0.0000000000000000e+00  2.3740164210422619e-03 -4.5149730042276393e-03 0.0000000000000000e+00  -2.4659620672717944e-03 -4.5427937693498319e-03 0.0000000000000000e+00  -2.5114055512271203e-03 -4.7101159262907984e-03 0.0000000000000000e+00  -2.5719117991986847e-03 -4.9829938950489931e-03 0.0000000000000000e+00  -2.6416465888654227e-03 -5.3319588154211702e-03 0.0000000000000000e+00  -2.7177831881634753e-03 -5.7286182791359283e-03 0.0000000000000000e+00  -2.7975743036336136e-03 -6.1515058606283271e-03 0.0000000000000000e+00  -2.8794541284505311e-03 -6.5873319458995983e-03 0.0000000000000000e+00  -2.9622517360056509e-03 -7.0287581634149703e-03 0.0000000000000000e+00  -3.0451802336618114e-03 -7.4722574296108074e-03 0.0000000000000000e+00  -3.1276929277894356e-03 -7.9161771611860020e-03 0.0000000000000000e+00  -3.2094673033372942e-03 -8.3597776914858986e-03 0.0000000000000000e+00  -3.2901330024887525e-03 -8.8026422485067996e-03 0.0000000000000000e+00  -3.3694720955023748e-03 -9.2445008794584359e-03 0.0000000000000000e+00  -3.4472215361276821e-03 -9.6851157559061703e-03 0.0000000000000000e+00  -3.5230156681856652e-03 -1.0124211077970900e-02 0.0000000000000000e+00  -3.5966032859918546e-03 -1.0561521742362329e-02 0.0000000000000000e+00  -3.6676327919278897e-03 -1.0996823842849815e-02 0.0000000000000000e+00  -3.7355866564121138e-03 -1.1429850875534702e-02 0.0000000000000000e+00  -3.8000537879819560e-03 -1.1860454666147964e-02 0.0000000000000000e+00  -3.8604544427880893e-03 -1.2288544693301791e-02 0.0000000000000000e+00  -3.9161444537998864e-03 -1.2714184286080890e-02 0.0000000000000000e+00  -3.9663895179935212e-03 -1.3137648297742641e-02 0.0000000000000000e+00  -4.0103155135072710e-03 -1.3559433869360151e-02 0.0000000000000000e+00  -4.0468329530450233e-03 -1.3980431837272890e-02 0.0000000000000000e+00  -4.0748068529918198e-03 -1.4401981215805344e-02 0.0000000000000000e+00  -4.0926359618769035e-03 -1.4826035745774048e-02 0.0000000000000000e+00  -4.0983646391387638e-03 -1.5255299210515738e-02 0.0000000000000000e+00  -4.0894306731002490e-03 -1.5693589972945250e-02 0.0000000000000000e+00  -4.0623150727655336e-03 -1.6146055318589165e-02 0.0000000000000000e+00  -4.0121816045841805e-03 -1.6619556556615747e-02 0.0000000000000000e+00  -3.9323553230213816e-03 -1.7122968607039792e-02 0.0000000000000000e+00  -3.8136081198874706e-03 -1.7667183532979292e-02 0.0000000000000000e+00  -3.6436387577167728e-03 -1.8263356237784016e-02 0.0000000000000000e+00  -3.4074374633148363e-03 -1.8920460778459002e-02 0.0000000000000000e+00  -3.0874248759770544e-03 -1.9637448697389547e-02 0.0000000000000000e+00  -2.6673670453197969e-03 -2.0393360848792133e-02 0.0000000000000000e+00  -2.1383698568251562e-03 -2.1137388710698642e-02 0.0000000000000000e+00  -1.4994438935009293e-03 -2.1783921691893599e-02 0.0000000000000000e+00  -7.7472118693547244e-04 -2.2231769540566135e-02 0.0000000000000000e+00  0.0000000000000000e+00 -2.1610509324112490e-02 0.0000000000000000e+00  0.0000000000000000e+00 -2.0850580035985521e-02 0.0000000000000000e+00  0.0000000000000000e+00 -2.0137946670107525e-02 0.0000000000000000e+00  0.0000000000000000e+00 -1.9492578159635780e-02 0.0000000000000000e+00  0.0000000000000000e+00 -1.8923838850094372e-02 0.0000000000000000e+00  0.0000000000000000e+00 -1.8429450568261715e-02 0.0000000000000000e+00  0.0000000000000000e+00 -1.8000918444482216e-02 0.0000000000000000e+00  0.0000000000000000e+00 -1.7627196353042180e-02 0.0000000000000000e+00  0.0000000000000000e+00 -1.7297228411502098e-02 0.0000000000000000e+00  0.0000000000000000e+00 -1.7001084276407629e-02 0.0000000000000000e+00  0.0000000000000000e+00 -1.6729756176927291e-02 0.0000000000000000e+00  0.0000000000000000e+00 -1.6474873433651956e-02 0.0000000000000000e+00  0.0000000000000000e+00 -1.6228616017153571e-02 0.0000000000000000e+00  0.0000000000000000e+00 -1.5982686985048362e-02 0.0000000000000000e+00  0.0000000000000000e+00 -1.5728870595085737e-02 0.0000000000000000e+00  0.0000000000000000e+00 -1.5457297187549984e-02 0.0000000000000000e+00  0.0000000000000000e+00 -1.5157142882189301e-02 0.0000000000000000e+00  0.0000000000000000e+00 -1.4815698905277190e-02 0.0000000000000000e+00  0.0000000000000000e+00 -1.4417476973533265e-02 0.0000000000000000e+00  0.0000000000000000e+00 -1.3944202071147436e-02 0.0000000000000000e+00  0.0000000000000000e+00 -1.3373642486763627e-02 0.0000000000000000e+00  0.0000000000000000e+00 -1.2678319646612212e-02 0.0000000000000000e+00  0.0000000000000000e+00 -1.1825350650557604e-02 0.0000000000000000e+00  0.0000000000000000e+00 -1.0774455326381776e-02 0.0000000000000000e+00  0.0000000000000000e+00 -9.4762342634954512e-03 0.0000000000000000e+00  0.0000000000000000e+00 -7.8747559433176018e-03 0.0000000000000000e+00  0.0000000000000000e+00 -5.9009285321911051e-03 0.0000000000000000e+00  0.0000000000000000e+00 -3.4775822316328144e-03 0.0000000000000000e+00  0.0000000000000000e+00 -5.2313667344642352e-04 0.0000000000000000e+00  0.0000000000000000e+00 3.0478646780979948e-03 0.0000000000000000e+00  0.0000000000000000e+00 7.3106181988495424e-03 0.0000000000000000e+00  0.0000000000000000e+00 1.2306059586034960e-02 0.0000000000000000e+00  0.0000000000000000e+00 1.8027871721110374e-02 0.0000000000000000e+00  0.0000000000000000e+00 2.4385437741623234e-02 0.0000000000000000e+00  0.0000000000000000e+00 3.1165677514301184e-02 0.0000000000000000e+00  0.0000000000000000e+00 3.8025276797099099e-02 0.0000000000000000e+00  0.0000000000000000e+00 4.4484034753456851e-02 0.0000000000000000e+00  0.0000000000000000e+00 4.9993917015347944e-02 0.0000000000000000e+00  0.0000000000000000e+00 5.3978286324249905e-02 0.0000000000000000e+00  0.0000000000000000e+00 5.5983993611919601e-02 0.0000000000000000e+00  0.0000000000000000e+00 5.5760269545310492e-02 0.0000000000000000e+00  0.0000000000000000e+00 5.3319807737676514e-02 0.0000000000000000e+00  0.0000000000000000e+00 4.8948518579186008e-02 0.0000000000000000e+00  0.0000000000000000e+00 4.3123483892626331e-02 0.0000000000000000e+00  0.0000000000000000e+00 3.6422561405685956e-02 0.0000000000000000e+00  0.0000000000000000e+00 2.9407129378908620e-02 0.0000000000000000e+00  0.0000000000000000e+00 2.2550414550626313e-02 0.0000000000000000e+00  0.0000000000000000e+00 1.6181755003377110e-02 0.0000000000000000e+00  0.0000000000000000e+00 1.0500655609783164e-02 0.0000000000000000e+00  0.0000000000000000e+00 5.5818705515508936e-03 0.0000000000000000e+00  0.0000000000000000e+00 1.4233435958243702e-03 0.0000000000000000e+00  0.0000000000000000e+00 -2.0335207000740860e-03 0.0000000000000000e+00  0.0000000000000000e+00 -4.8693235273211130e-03 0.0000000000000000e+00  0.0000000000000000e+00 -7.1757499638515554e-03 0.0000000000000000e+00  0.0000000000000000e+00 -9.0390764773539637e-03 0.0000000000000000e+00  0.0000000000000000e+00 -1.0538274515604688e-02 0.0000000000000000e+00  0.0000000000000000e+00 -1.1742788454269161e-02 0.0000000000000000e+00  0.0000000000000000e+00 -1.2710196639659308e-02 0.0000000000000000e+00  0.0000000000000000e+00 -1.3489164776942982e-02 0.0000000000000000e+00  0.0000000000000000e+00 -1.4119605943014851e-02 0.0000000000000000e+00  0.0000000000000000e+00 -1.4633918493893823e-02 0.0000000000000000e+00  0.0000000000000000e+00 -1.5058678763246073e-02 0.0000000000000000e+00  0.0000000000000000e+00 -1.5415338493023456e-02 0.0000000000000000e+00  0.0000000000000000e+00 -1.5721873356971759e-02 0.0000000000000000e+00  0.0000000000000000e+00 -1.5993010572534095e-02 0.0000000000000000e+00  0.0000000000000000e+00 -1.6240828579765148e-02 0.0000000000000000e+00  0.0000000000000000e+00 -1.6475845826071579e-02 0.0000000000000000e+00  0.0000000000000000e+00 -1.6707578814285168e-02 0.0000000000000000e+00  0.0000000000000000e+00 -1.6944144334625506e-02 0.0000000000000000e+00  0.0000000000000000e+00 -1.7193317547897075e-02 0.0000000000000000e+00  0.0000000000000000e+00 -1.7463228082216242e-02 0.0000000000000000e+00  0.0000000000000000e+00 -1.7762171263255903e-02 0.0000000000000000e+00  0.0000000000000000e+00 -1.8099252719622327e-02 0.0000000000000000e+00  0.0000000000000000e+00 -1.8484481236527964e-02 0.0000000000000000e+00  0.0000000000000000e+00 -1.8928654852344996e-02 0.0000000000000000e+00  0.0000000000000000e+00 -1.9441869427804660e-02 0.0000000000000000e+00  0.0000000000000000e+00 -2.0029102464786529e-02 0.0000000000000000e+00  0.0000000000000000e+00 -2.0687913126358936e-02 0.0000000000000000e+00  0.0000000000000000e+00 -2.1402188449841358e-02 0.0000000000000000e+00  7.3986098422938198e-04 -2.2008634075800591e-02 0.0000000000000000e+00  1.4337386964357291e-03 -2.1622897944013893e-02 0.0000000000000000e+00  2.0459323457210112e-03 -2.1060264507301217e-02 0.0000000000000000e+00  2.5574454582398326e-03 -2.0404941902374827e-02 0.0000000000000000e+00  2.9661659797667566e-03 -1.9727699664401757e-02 0.0000000000000000e+00  3.2801532627351692e-03 -1.9072852484414836e-02 0.0000000000000000e+00  3.5148914619303586e-03 -1.8460629909252603e-02 0.0000000000000000e+00  3.6856053627603116e-03 -1.7894308853518642e-02 0.0000000000000000e+00  3.8064587526158416e-03 -1.7368634587857888e-02 0.0000000000000000e+00  3.8890055523728472e-03 -1.6875517975920955e-02 0.0000000000000000e+00  3.9414213139853669e-03 -1.6406770174440487e-02 0.0000000000000000e+00  3.9706789490170343e-03 -1.5955195117945423e-02 0.0000000000000000e+00  3.9814344374876458e-03 -1.5515070727964419e-02 0.0000000000000000e+00  3.9772035808449515e-03 -1.5082013071921503e-02 0.0000000000000000e+00  3.9607582493110466e-03 -1.4652784383769381e-02 0.0000000000000000e+00  3.9338953287531633e-03 -1.4224942162535462e-02 0.0000000000000000e+00  3.8985381753753766e-03 -1.3796796779514960e-02 0.0000000000000000e+00  3.8558670105931282e-03 -1.3367203597922577e-02 0.0000000000000000e+00  3.8069694836546973e-03 -1.2935373582740188e-02 0.0000000000000000e+00  3.7529123211700495e-03 -1.2500955314847040e-02 0.0000000000000000e+00  3.6941435629861082e-03 -1.2063755214902471e-02 0.0000000000000000e+00  3.6316587940472176e-03 -1.1623798760620188e-02 0.0000000000000000e+00  3.5658331905629413e-03 -1.1181234472692179e-02 0.0000000000000000e+00  3.4971853807494579e-03 -1.0736276470985196e-02 0.0000000000000000e+00  3.4262356592072740e-03 -1.0289196555506639e-02 0.0000000000000000e+00  3.3530421297676624e-03 -9.8402901850592698e-03 0.0000000000000000e+00  3.2781109651964300e-03 -9.3897991432170119e-03 0.0000000000000000e+00  3.2016605812963243e-03 -8.9379725127188593e-03 0.0000000000000000e+00  3.1238627634209591e-03 -8.4850587031700987e-03 0.0000000000000000e+00  3.0449652936908205e-03 -8.0312320832860735e-03 0.0000000000000000e+00  2.9651227691767298e-03 -7.5768592699977464e-03 0.0000000000000000e+00  2.8848782911030765e-03 -7.1225707764171900e-03 0.0000000000000000e+00  2.8043612673873644e-03 -6.6699510545510585e-03 0.0000000000000000e+00  2.7245910592453570e-03 -6.2225871032563712e-03 0.0000000000000000e+00  2.6464155152581157e-03 -5.7879154638205673e-03 0.0000000000000000e+00  2.5716198164498104e-03 -5.3796698466683449e-03 0.0000000000000000e+00  2.5027374663179761e-03 -5.0200243273809605e-03 0.0000000000000000e+00  2.4426511303028767e-03 -4.7381250786262177e-03 0.0000000000000000e+00  2.3975122895626903e-03 -4.5643115032703166e-03 0.0000000000000000e+00  2.2761511447981601e-03 -4.5393046851091839e-03 0.0000000000000000e+00  2.0363273122983756e-03 -4.5885752285985655e-03 0.0000000000000000e+00  1.6967507449230030e-03 -4.6568673871710499e-03 0.0000000000000000e+00  1.2961209717349544e-03 -4.7398523485313853e-03 0.0000000000000000e+00  8.6467925933387179e-04 -4.8345106657428256e-03 0.0000000000000000e+00  4.2321646837603373e-04 -4.9382473193749794e-03 0.0000000000000000e+00  -1.6284107405980355e-05 -5.0494798018976949e-03 0.0000000000000000e+00  -4.4769621296932981e-04 -5.1664126857852077e-03 0.0000000000000000e+00  -8.6791591812514939e-04 -5.2881528092879092e-03 0.0000000000000000e+00  -1.2753421638739494e-03 -5.4136050366238274e-03 0.0000000000000000e+00  -1.6687102257715574e-03 -5.5424706426288762e-03 0.0000000000000000e+00  -2.0469395507852787e-03 -5.6737773393782127e-03 0.0000000000000000e+00  -2.4086458949138783e-03 -5.8070797225362736e-03 0.0000000000000000e+00  -2.7523362025765356e-03 -5.9417181821931012e-03 0.0000000000000000e+00  -3.0762183065652358e-03 -6.0773436792816516e-03 0.0000000000000000e+00  -3.3784727534080911e-03 -6.2130454198698727e-03 0.0000000000000000e+00  -3.6569670247167695e-03 -6.3482793910045777e-03 0.0000000000000000e+00  -3.9094909861433162e-03 -6.4823199906554798e-03 0.0000000000000000e+00  -4.1336346178243262e-03 -6.6144279587659867e-03 0.0000000000000000e+00  -4.3269652751438056e-03 -6.7437849031595932e-03 0.0000000000000000e+00  -4.4869309993527577e-03 -6.8697690018760691e-03 0.0000000000000000e+00  -4.6109051265249392e-03 -6.9914811620834178e-03 0.0000000000000000e+00  -4.6965023904339568e-03 -7.1081520241371206e-03 0.0000000000000000e+00  -4.7411533902501791e-03 -7.2192048517483497e-03 0.0000000000000000e+00  -4.7427125527952970e-03 -7.3240029260337952e-03 0.0000000000000000e+00  -4.6992246190315336e-03 -7.4219397777908125e-03 0.0000000000000000e+00  -4.6090358429273738e-03 -7.5126389961189506e-03 0.0000000000000000e+00  -4.4711921714236762e-03 -7.5957585458574818e-03 0.0000000000000000e+00  -4.2847883532117353e-03 -7.6712516477472972e-03 0.0000000000000000e+00  -4.0501948660001822e-03 -7.7389800872400515e-03 0.0000000000000000e+00  -3.7682251341217324e-03 -7.7991364361430799e-03 0.0000000000000000e+00  -3.4404189510360097e-03 -7.8519780762683969e-03 0.0000000000000000e+00  -3.0694437651644802e-03 -7.8978024178888179e-03 0.0000000000000000e+00  -2.6585298664041760e-03 -7.9369652925459517e-03 0.0000000000000000e+00  -2.2121085218295040e-03 -7.9700279862106472e-03 0.0000000000000000e+00  -1.7352704679329610e-03 -7.9973037527221336e-03 0.0000000000000000e+00  -1.2338426581466983e-03 -8.0192250350802560e-03 0.0000000000000000e+00  -7.1438335706670083e-04 -8.0360473236418383e-03 0.0000000000000000e+00  -1.8380211995810568e-04 -8.0478646875440252e-03 0.0000000000000000e+00  3.5060184223528306e-04 -8.0547854631996731e-03 0.0000000000000000e+00  8.8144356257838664e-04 -8.0566368296634931e-03 0.0000000000000000e+00  1.4013968265420204e-03 -8.0531858495469597e-03 0.0000000000000000e+00  1.9034628952179391e-03 -8.0439639873721869e-03 0.0000000000000000e+00  2.3811567620458034e-03 -8.0287663370482900e-03 0.0000000000000000e+00  2.8282609334198175e-03 -8.0064922225000276e-03 0.0000000000000000e+00  3.2400717102171544e-03 -7.9772138697455381e-03 0.0000000000000000e+00  3.6117633217234587e-03 -7.9400636308904239e-03 0.0000000000000000e+00  3.9401519444573667e-03 -7.8947363703387799e-03 0.0000000000000000e+00  4.2225624146210502e-03 -7.8407923758897664e-03 0.0000000000000000e+00  4.4574403755093424e-03 -7.7781539787325554e-03 0.0000000000000000e+00  4.6437662219715580e-03 -7.7067178779473078e-03 0.0000000000000000e+00  4.7816512872126985e-03 -7.6265600301711495e-03 0.0000000000000000e+00  4.8715944767128505e-03 -7.5378863796401073e-03 0.0000000000000000e+00  4.9148741605651563e-03 -7.4412276537310397e-03 0.0000000000000000e+00  4.9132098563730896e-03 -7.3370777363748821e-03 0.0000000000000000e+00  4.8684736859475981e-03 -7.2259416642550273e-03 0.0000000000000000e+00  4.7831610995017699e-03 -7.1087402087993256e-03 0.0000000000000000e+00  4.6597203676240258e-03 -6.9861577706821923e-03 0.0000000000000000e+00  4.5007821239407804e-03 -6.8590167996714461e-03 0.0000000000000000e+00  4.3090010357800254e-03 -6.7282049301474085e-03 0.0000000000000000e+00  4.0869581596708450e-03 -6.5945028542938496e-03 0.0000000000000000e+00  3.8372178410665731e-03 -6.4587168149780241e-03 0.0000000000000000e+00  3.5622407734492941e-03 -6.3216814522132642e-03 0.0000000000000000e+00  3.2643682108447931e-03 -6.1840286956130084e-03 0.0000000000000000e+00  2.9456745326256893e-03 -6.0465717864784342e-03 0.0000000000000000e+00  2.6081884572429987e-03 -5.9098834615208973e-03 0.0000000000000000e+00  2.2536912858943381e-03 -5.7745150671115160e-03 0.0000000000000000e+00  1.8837803187242200e-03 -5.6410884615073686e-03 0.0000000000000000e+00  1.4999095253118671e-03 -5.5100422557212200e-03 0.0000000000000000e+00  1.1032676900888353e-03 -5.3819804195940216e-03 0.0000000000000000e+00  6.9502392146591726e-04 -5.2573570951181224e-03 0.0000000000000000e+00  2.7636109583404988e-04 -5.1369108253494031e-03 0.0000000000000000e+00  -1.5093089672562769e-04 -5.0213688303487099e-03 0.0000000000000000e+00  -5.8353739398192713e-04 -4.9117966956222763e-03 0.0000000000000000e+00  -1.0147132172476246e-03 -4.8095651048329670e-03 0.0000000000000000e+00  -1.4319353918185430e-03 -4.7165297473346158e-03 0.0000000000000000e+00  -1.8143271798445391e-03 -4.6348712674578003e-03 0.0000000000000000e+00  -2.1329932687046667e-03 -4.5680460233947810e-03 0.0000000000000000e+00  -2.3541986740107908e-03 -4.5194567950400328e-03 0.0000000000000000e+00  -1.0143227072926211e-02 -1.3320679145982785e-02 0.0000000000000000e+00  4.7260331162041593e-03 -1.6017852810965197e-02 0.0000000000000000e+00  -2.3054004226616851e-03 -1.2612751714900512e-02 0.0000000000000000e+00  9.7319510242714147e-04 -1.0511272285508164e-02 0.0000000000000000e+00  -9.0085926010126957e-04 -1.5626067455636741e-02 0.0000000000000000e+00  7.9949872553780014e-04 -5.5925595339814282e-02 0.0000000000000000e+00  4.7207104532929235e-03 -7.0962902459015291e-03 0.0000000000000000e+00  1.0469579550744133e-04 -2.1236382135371257e-02 0.0000000000000000e+00  1.1344061993424014e-03 -1.6091912056159487e-02 0.0000000000000000e+00  -5.1826308747962967e-03 -9.1400471299598884e-03 0.0000000000000000e+00  -2.3070044636069155e-03 -1.8674176785747013e-02 0.0000000000000000e+00  4.2395004955227611e-03 -9.5370100072620853e-03 0.0000000000000000e+00  2.5187297237711438e-02 -6.4145765551682124e-02 0.0000000000000000e+00  -1.8350671639912847e-04 -8.7847686104234150e-03 0.0000000000000000e+00  -2.3170923706249810e-03 -6.4585576846095897e-03 0.0000000000000000e+00  1.1492843263359207e-03 -1.3120258581018692e-02 0.0000000000000000e+00  -3.2994649279397539e-03 -8.7605637242915060e-03 0.0000000000000000e+00  -1.5096751180682258e-03 -1.2937960693361759e-02 0.0000000000000000e+00  -6.0946848810641023e-03 -1.5261455147410709e-02 0.0000000000000000e+00  -6.6266378708219355e-04 -7.5869216531844570e-03 0.0000000000000000e+00  -2.0563061705547864e-03 -1.6752126849726975e-02 0.0000000000000000e+00  5.8304425822662603e-03 -1.1061966875836644e-02 0.0000000000000000e+00  1.4396971551424520e-03 -1.4114767038617564e-02 0.0000000000000000e+00  -1.5459861196812070e-02 -2.1798151129271956e-02 0.0000000000000000e+00  4.6070656608866610e-03 -8.0209698022564863e-03 0.0000000000000000e+00  1.4844370260551681e-03 -1.6822404599686151e-02 0.0000000000000000e+00  9.6262895647425302e-03 -1.9010749053060976e-02 0.0000000000000000e+00  1.3001874929486184e-02 -2.0636986173226894e-02 0.0000000000000000e+00  -1.0377502310670249e-03 -1.6168586883302888e-02 0.0000000000000000e+00  -1.3112054218957809e-03 -1.6203526226209498e-02 0.0000000000000000e+00  2.6262545666120903e-03 -8.0641509449399639e-03 0.0000000000000000e+00  -2.0754493431419243e-02 -1.9305146700049576e-02 0.0000000000000000e+00  6.3654972327057456e-03 -1.0904870961434615e-02 0.0000000000000000e+00  1.9245547287054039e-03 -1.7220398945723837e-02 0.0000000000000000e+00  1.5683748577775673e-03 -6.8772735403421830e-03 0.0000000000000000e+00  -5.7789097414697663e-03 -3.0282743254403579e-02 0.0000000000000000e+00  6.3319102738890935e-04 -2.5618968836796544e-02 0.0000000000000000e+00  -1.7882236842959125e-03 -1.0240229985037378e-02 0.0000000000000000e+00  -2.6355793403579535e-03 -1.4943453527272787e-02 0.0000000000000000e+00  -3