<?xml version="1.0"?>
<VTKFile type="UnstructuredGrid"  version="0.1"  >
<UnstructuredGrid>
<Piece  NumberOfPoints="4372" NumberOfCells="8502">
<Points>
<DataArray  type="Float64"  NumberOfComponents="3"  format="ascii">-2 2 0  0 2 0  0 -2 0  -2 -2 0  -1.949999999999792 2 0  -1.899999999999584 2 0  -1.849999999999375 2 0  -1.799999999999167 2 0  -1.749999999999002 2 0  -1.699999999999306 2 0  -1.649999999999653 2 0  -1.6 2 0  -1.550000000000346 2 0  -1.500000000000693 2 0  -1.45000000000104 2 0  -1.400000000001387 2 0  -1.350000000001733 2 0  -1.30000000000208 2 0  -1.250000000002427 2 0  -1.200000000002774 2 0  -1.150000000003121 2 0  -1.100000000003467 2 0  -1.050000000003814 2 0  -1.000000000004117 2 0  -0.9500000000039528 2 0  -0.9000000000037447 2 0  -0.8500000000035368 2 0  -0.8000000000033287 2 0  -0.7500000000031206 2 0  -0.7000000000029127 2 0  -0.6500000000027044 2 0  -0.6000000000024965 2 0  -0.5500000000022884 2 0  -0.5000000000020806 2 0  -0.4500000000018725 2 0  -0.4000000000016644 2 0  -0.3500000000014563 2 0  -0.3000000000012482 2 0  -0.2500000000010403 2 0  -0.200000000000832 2 0  -0.1500000000006243 2 0  -0.100000000000416 2 0  -0.0500000000002081 2 0  0 1.950000000000139 0  0 1.900000000000277 0  0 1.850000000000416 0  0 1.800000000000555 0  0 1.750000000000693 0  0 1.700000000000832 0  0 1.650000000000971 0  0 1.60000000000111 0  0 1.550000000001248 0  0 1.500000000001387 0  0 1.450000000001526 0  0 1.400000000001664 0  0 1.350000000001803 0  0 1.300000000001942 0  0 1.250000000002081 0  0 1.200000000002219 0  0 1.150000000002358 0  0 1.100000000002496 0  0 1.050000000002635 0  0 1.000000000002774 0  0 0.9500000000029125 0  0 0.9000000000030515 0  0 0.8500000000031902 0  0 0.8000000000033287 0  0 0.7500000000034674 0  0 0.7000000000036062 0  0 0.6500000000037449 0  0 0.6000000000038836 0  0 0.5500000000040224 0  0 0.5000000000041611 0  0 0.4500000000042998 0  0 0.4000000000044384 0  0 0.3500000000045771 0  0 0.3000000000047156 0  0 0.2500000000048543 0  0 0.2000000000049929 0  0 0.1500000000051318 0  0 0.1000000000052705 0  0 0.05000000000540905 0  0 5.504485756091526e-12 0  0 -0.04999999999459082 0  0 -0.09999999999472964 0  0 -0.149999999994868 0  0 -0.1999999999950068 0  0 -0.2499999999951457 0  0 -0.299999999995284 0  0 -0.3499999999954229 0  0 -0.3999999999955617 0  0 -0.4499999999957001 0  0 -0.4999999999958389 0  0 -0.5499999999959777 0  0 -0.5999999999961165 0  0 -0.6499999999962549 0  0 -0.6999999999963937 0  0 -0.7499999999965326 0  0 -0.7999999999966709 0  0 -0.8499999999968098 0  0 -0.8999999999969486 0  0 -0.949999999997087 0  0 -0.9999999999972258 0  0 -1.049999999997365 0  0 -1.099999999997503 0  0 -1.149999999997642 0  0 -1.199999999997781 0  0 -1.249999999997919 0  0 -1.299999999998058 0  0 -1.349999999998198 0  0 -1.399999999998336 0  0 -1.449999999998474 0  0 -1.499999999998613 0  0 -1.549999999998751 0  0 -1.599999999998891 0  0 -1.64999999999903 0  0 -1.699999999999168 0  0 -1.749999999999306 0  0 -1.799999999999445 0  0 -1.849999999999584 0  0 -1.899999999999723 0  0 -1.949999999999862 0  -0.04999999999990573 -2 0  -0.0999999999997993 -2 0  -0.1499999999997056 -2 0  -0.1999999999996293 -2 0  -0.2499999999995475 -2 0  -0.2999999999994072 -2 0  -0.3499999999992615 -2 0  -0.3999999999991157 -2 0  -0.44999999999897 -2 0  -0.4999999999988242 -2 0  -0.5499999999986784 -2 0  -0.5999999999985328 -2 0  -0.649999999998387 -2 0  -0.6999999999982413 -2 0  -0.7499999999980955 -2 0  -0.7999999999979498 -2 0  -0.8499999999978042 -2 0  -0.8999999999976585 -2 0  -0.9499999999975127 -2 0  -0.9999999999973885 -2 0  -1.049999999997498 -2 0  -1.09999999999763 -2 0  -1.149999999997762 -2 0  -1.199999999997894 -2 0  -1.249999999998025 -2 0  -1.299999999998157 -2 0  -1.349999999998289 -2 0  -1.39999999999842 -2 0  -1.449999999998552 -2 0  -1.499999999998683 -2 0  -1.549999999998815 -2 0  -1.599999999998947 -2 0  -1.649999999999078 -2 0  -1.69999999999921 -2 0  -1.749999999999342 -2 0  -1.799999999999474 -2 0  -1.849999999999605 -2 0  -1.899999999999737 -2 0  -1.949999999999869 -2 0  -2 -1.950000000000139 0  -2 -1.900000000000277 0  -2 -1.850000000000416 0  -2 -1.800000000000555 0  -2 -1.750000000000693 0  -2 -1.700000000000832 0  -2 -1.650000000000971 0  -2 -1.60000000000111 0  -2 -1.550000000001248 0  -2 -1.500000000001387 0  -2 -1.450000000001526 0  -2 -1.400000000001664 0  -2 -1.350000000001803 0  -2 -1.300000000001942 0  -2 -1.250000000002081 0  -2 -1.200000000002219 0  -2 -1.150000000002358 0  -2 -1.100000000002496 0  -2 -1.050000000002635 0  -2 -1.000000000002774 0  -2 -0.9500000000029125 0  -2 -0.9000000000030515 0  -2 -0.8500000000031902 0  -2 -0.8000000000033287 0  -2 -0.7500000000034674 0  -2 -0.7000000000036062 0  -2 -0.6500000000037449 0  -2 -0.6000000000038836 0  -2 -0.5500000000040224 0  -2 -0.5000000000041611 0  -2 -0.4500000000042998 0  -2 -0.4000000000044384 0  -2 -0.3500000000045771 0  -2 -0.3000000000047156 0  -2 -0.2500000000048543 0  -2 -0.2000000000049929 0  -2 -0.1500000000051318 0  -2 -0.1000000000052705 0  -2 -0.05000000000540905 0  -2 -5.504485756091526e-12 0  -2 0.04999999999459082 0  -2 0.09999999999472964 0  -2 0.149999999994868 0  -2 0.1999999999950068 0  -2 0.2499999999951457 0  -2 0.299999999995284 0  -2 0.3499999999954229 0  -2 0.3999999999955617 0  -2 0.4499999999957001 0  -2 0.4999999999958389 0  -2 0.5499999999959777 0  -2 0.5999999999961165 0  -2 0.6499999999962549 0  -2 0.6999999999963937 0  -2 0.7499999999965326 0  -2 0.7999999999966709 0  -2 0.8499999999968098 0  -2 0.8999999999969486 0  -2 0.949999999997087 0  -2 0.9999999999972258 0  -2 1.049999999997365 0  -2 1.099999999997503 0  -2 1.149999999997642 0  -2 1.199999999997781 0  -2 1.249999999997919 0  -2 1.299999999998058 0  -2 1.349999999998198 0  -2 1.399999999998336 0  -2 1.449999999998474 0  -2 1.499999999998613 0  -2 1.549999999998751 0  -2 1.599999999998891 0  -2 1.64999999999903 0  -2 1.699999999999168 0  -2 1.749999999999306 0  -2 1.799999999999445 0  -2 1.849999999999584 0  -2 1.899999999999723 0  -2 1.949999999999862 0  -0.9991019297010011 -0.3216894116769606 0  -1.001123860021573 0.7747860510049681 0  -1.157001840564423 -1.161067247012082 0  -1.338027560051535 1.335779534439809 0  -0.6597222222209854 1.340277777778947 0  -0.6585505322915344 0.2210104638722434 0  -1.342670381551713 0.2273264508688188 0  -0.6282204758073073 -0.8120080430170664 0  -0.584236517600881 -1.424312893620663 0  -1.444216308265114 -0.6762220291217811 0  -0.5052068177397626 0.8617966625436217 0  -1.495725541732084 0.8726406067560636 0  -0.5012956875285356 -0.2537377131698332 0  -1.505964779037762 -1.506864731248248 0  -1.533439101629034 -0.2141932377592857 0  -0.9980909254944228 -1.563025322244478 0  -1.573871097078973 -1.076090339205781 0  -0.9938363905916023 1.574658399668859 0  -1.034823301857025 -0.7463046737786232 0  -1.613643420611705 1.613643420611667 0  -0.3789826634893113 1.622833641383097 0  -0.9969623469406674 0.06224895986291776 0  -0.9977570821219073 1.152964911765466 0  -0.3827586671415756 0.4981078379584384 0  -1.617241332858342 0.4981078379584687 0  -0.3735162279179589 -1.10055932464888 0  -0.9514697352838486 0.4195344991084976 0  -0.3671724871528862 -0.5890291676826473 0  -0.8024708669961921 -1.130631989953667 0  -0.3498086031259764 1.176326426441 0  -1.654591699695181 1.175475929606857 0  -0.3418462529951587 0.05839036814553086 0  -1.276352049535552 0.5646214960700082 0  -0.3455726757630372 -1.654274000872155 0  -1.662000930981631 0.09800841401402562 0  -0.7326605900058469 -0.5029780286614124 0  -0.6815317218188973 0.6015493889244842 0  -1.294915051768271 1.68349586060536 0  -0.6978609120161386 1.682418596511037 0  -1.69042813419972 -0.4820149800903958 0  -0.7177378365368432 -1.691938564923942 0  -1.295041566734205 -0.3964989221993158 0  -1.257425593209587 -1.693594420665469 0  -1.246383246782414 -0.1148360514526407 0  -0.7362449271051545 -0.05964032805167522 0  -1.707983706106591 -0.8099422821034401 0  -0.7716224277305496 0.9720234774828133 0  -1.275827556233888 1.059370830779667 0  -1.709731219610966 -1.713515019749574 0  -0.283604077223767 -1.378462113197051 0  -1.331628086330126 -0.9256871504417986 0  -1.718803648671523 -1.313287096736098 0  -1.237157326776588 -1.417624750871973 0  -0.2754377852160807 -0.8405670548436512 0  -0.2604914310470714 0.745077019249353 0  -1.729633983752603 0.7365041208839631 0  -0.2591591556650803 -0.3445128723686334 0  -0.2497705497594995 0.2862378673199174 0  -0.2571319926197782 1.401471300128245 0  -1.750457518478978 1.404891698644917 0  -0.8313391195977098 -1.383947161511035 0  -1.24247470005791 0.8083576983762071 0  -1.75762809210058 -0.121394575294928 0  -1.436009639427774 -1.277692839795198 0  -0.9951285024698884 -0.9801850598617781 0  -0.5860531098993602 1.102916873865959 0  -1.107154037528234 1.367740498542844 0  -1.765353655027761 0.3139359895551974 0  -0.239693234576285 0.9675382248711792 0  -1.762311524625569 0.9715314837693784 0  -1.453060458314344 0.01668426334404738 0  -1.118216683883963 0.2510494134873997 0  -1.487314750788142 -1.768895281943666 0  -0.775695807447912 -0.2851187916602083 0  -1.775021992875828 1.773058151300929 0  -0.2244440016626344 1.771853493176412 0  -0.8797519944267721 1.389822301404418 0  -1.220958717521525 -0.6178523500889427 0  -0.59343770640056 -1.180817576357191 0  -0.9262618789157869 -1.776942446977449 0  -0.2205428235968764 -0.1260615883490472 0  -1.10972339161439 1.777127575560661 0  -0.9394997616645768 -0.5365790009321401 0  -0.812081892264416 -0.7153463049796221 0  -1.783917055200667 -1.008716696077253 0  -0.515263853692324 -1.788606832309386 0  -0.8883686379713935 1.780240085569055 0  -1.545545177082075 0.2916466799431231 0  -1.490071498349099 1.777107893879804 0  -0.5133806951054479 1.777756514587614 0  -1.042544744196485 -1.335739934857762 0  -0.8641039527440014 0.2249999999994 0  -1.475046450324973 0.6546028915744984 0  -1.529677928948796 1.412892352790367 0  -0.4613578028330296 1.41527900122371 0  -1.790928681625402 -1.
[...]
<PointData  Vectors="f_31-0"> 
<DataArray  type="Float64"  Name="f_31-0"  NumberOfComponents="3" format="ascii">-2.7430015066030856e-03 -3.9482762930785247e-03 0.0000000000000000e+00  0.0000000000000000e+00 -2.4153476742702979e-02 0.0000000000000000e+00  0.0000000000000000e+00 -2.3933434389158952e-02 0.0000000000000000e+00  2.7250156073579368e-03 -3.9516888976162297e-03 0.0000000000000000e+00  -2.7748615338953728e-03 -4.0498516583685890e-03 0.0000000000000000e+00  -2.8344508816525531e-03 -4.3475171464503583e-03 0.0000000000000000e+00  -2.9092942027818237e-03 -4.7514658814730524e-03 0.0000000000000000e+00  -2.9892945764656569e-03 -5.1949366591782188e-03 0.0000000000000000e+00  -3.0725676613462768e-03 -5.6497020085235286e-03 0.0000000000000000e+00  -3.1562338576940877e-03 -6.1057774164469088e-03 0.0000000000000000e+00  -3.2400694399800883e-03 -6.5609403082830461e-03 0.0000000000000000e+00  -3.3235920416120643e-03 -7.0145054301473560e-03 0.0000000000000000e+00  -3.4065644446448500e-03 -7.4665415556713181e-03 0.0000000000000000e+00  -3.4885574597274508e-03 -7.9172086679662086e-03 0.0000000000000000e+00  -3.5697426373346415e-03 -8.3666235459554702e-03 0.0000000000000000e+00  -3.6494665631681858e-03 -8.8146423959951283e-03 0.0000000000000000e+00  -3.7278561818630718e-03 -9.2612263092097802e-03 0.0000000000000000e+00  -3.8048213850136923e-03 -9.7062716331072409e-03 0.0000000000000000e+00  -3.8793965997634345e-03 -1.0149489963603949e-02 0.0000000000000000e+00  -3.9518742297350437e-03 -1.0590647319834241e-02 0.0000000000000000e+00  -4.0221097954094088e-03 -1.1029565752974150e-02 0.0000000000000000e+00  -4.0890246043760606e-03 -1.1465675235253403e-02 0.0000000000000000e+00  -4.1526154777924229e-03 -1.1899022295253912e-02 0.0000000000000000e+00  -4.2124601462759587e-03 -1.2329213353193752e-02 0.0000000000000000e+00  -4.2679271901106125e-03 -1.2756153984255104e-02 0.0000000000000000e+00  -4.3187515723753520e-03 -1.3179911485879381e-02 0.0000000000000000e+00  -4.3642334940957343e-03 -1.3600691591103815e-02 0.0000000000000000e+00  -4.4032203956409005e-03 -1.4018999543297534e-02 0.0000000000000000e+00  -4.4359382078277962e-03 -1.4435764259020630e-02 0.0000000000000000e+00  -4.4610571831188708e-03 -1.4852309529424358e-02 0.0000000000000000e+00  -4.4775568129348702e-03 -1.5270316550843852e-02 0.0000000000000000e+00  -4.4846007108665540e-03 -1.5692497020759887e-02 0.0000000000000000e+00  -4.4807251986851643e-03 -1.6122572468388639e-02 0.0000000000000000e+00  -4.4636940551660686e-03 -1.6565468877848349e-02 0.0000000000000000e+00  -4.4308632938618092e-03 -1.7028243674904627e-02 0.0000000000000000e+00  -4.3774562782321795e-03 -1.7521346674350190e-02 0.0000000000000000e+00  -4.2957097988854933e-03 -1.8060013053635443e-02 0.0000000000000000e+00  -4.1721276318151855e-03 -1.8667392690341466e-02 0.0000000000000000e+00  -3.9824954012201499e-03 -1.9378314038370575e-02 0.0000000000000000e+00  -3.6820098356958870e-03 -2.0240394008552730e-02 0.0000000000000000e+00  -3.2053694722795848e-03 -2.1299553424515963e-02 0.0000000000000000e+00  -2.4465105842559798e-03 -2.2524943926733185e-02 0.0000000000000000e+00  -1.3575737899713712e-03 -2.3658078480665076e-02 0.0000000000000000e+00  0.0000000000000000e+00 -2.2754335329739372e-02 0.0000000000000000e+00  0.0000000000000000e+00 -2.1513500889408510e-02 0.0000000000000000e+00  0.0000000000000000e+00 -2.0501079352601047e-02 0.0000000000000000e+00  0.0000000000000000e+00 -1.9699387365822277e-02 0.0000000000000000e+00  0.0000000000000000e+00 -1.9058660988309203e-02 0.0000000000000000e+00  0.0000000000000000e+00 -1.8533402885046301e-02 0.0000000000000000e+00  0.0000000000000000e+00 -1.8091895143876616e-02 0.0000000000000000e+00  0.0000000000000000e+00 -1.7712394687120027e-02 0.0000000000000000e+00  0.0000000000000000e+00 -1.7379320316620504e-02 0.0000000000000000e+00  0.0000000000000000e+00 -1.7080936617510825e-02 0.0000000000000000e+00  0.0000000000000000e+00 -1.6807322828794807e-02 0.0000000000000000e+00  0.0000000000000000e+00 -1.6549675053645661e-02 0.0000000000000000e+00  0.0000000000000000e+00 -1.6299720020904837e-02 0.0000000000000000e+00  0.0000000000000000e+00 -1.6048772567459700e-02 0.0000000000000000e+00  0.0000000000000000e+00 -1.5788154223160843e-02 0.0000000000000000e+00  0.0000000000000000e+00 -1.5507273177082875e-02 0.0000000000000000e+00  0.0000000000000000e+00 -1.5194650297741898e-02 0.0000000000000000e+00  0.0000000000000000e+00 -1.4836503128804267e-02 0.0000000000000000e+00  0.0000000000000000e+00 -1.4416060960105323e-02 0.0000000000000000e+00  0.0000000000000000e+00 -1.3913350179244008e-02 0.0000000000000000e+00  0.0000000000000000e+00 -1.3304211068456617e-02 0.0000000000000000e+00  0.0000000000000000e+00 -1.2558070613869226e-02 0.0000000000000000e+00  0.0000000000000000e+00 -1.1638567170667495e-02 0.0000000000000000e+00  0.0000000000000000e+00 -1.0500548029423776e-02 0.0000000000000000e+00  0.0000000000000000e+00 -9.0879709184723389e-03 0.0000000000000000e+00  0.0000000000000000e+00 -7.3379670530538278e-03 0.0000000000000000e+00  0.0000000000000000e+00 -5.1700470953496471e-03 0.0000000000000000e+00  0.0000000000000000e+00 -2.4934615403763584e-03 0.0000000000000000e+00  0.0000000000000000e+00 7.8996734456400822e-04 0.0000000000000000e+00  0.0000000000000000e+00 4.7859862290730243e-03 0.0000000000000000e+00  0.0000000000000000e+00 9.5953853210195197e-03 0.0000000000000000e+00  0.0000000000000000e+00 1.5284649108847947e-02 0.0000000000000000e+00  0.0000000000000000e+00 2.1870852163635757e-02 0.0000000000000000e+00  0.0000000000000000e+00 2.9272277171872058e-02 0.0000000000000000e+00  0.0000000000000000e+00 3.7257772607629483e-02 0.0000000000000000e+00  0.0000000000000000e+00 4.5418684108806555e-02 0.0000000000000000e+00  0.0000000000000000e+00 5.3141283152368594e-02 0.0000000000000000e+00  0.0000000000000000e+00 5.9699915020134713e-02 0.0000000000000000e+00  0.0000000000000000e+00 6.4302185594112313e-02 0.0000000000000000e+00  0.0000000000000000e+00 6.6348160965730443e-02 0.0000000000000000e+00  0.0000000000000000e+00 6.5533345191573361e-02 0.0000000000000000e+00  0.0000000000000000e+00 6.1969029499747995e-02 0.0000000000000000e+00  0.0000000000000000e+00 5.6134276913655502e-02 0.0000000000000000e+00  0.0000000000000000e+00 4.8763732680311749e-02 0.0000000000000000e+00  0.0000000000000000e+00 4.0638388378868788e-02 0.0000000000000000e+00  0.0000000000000000e+00 3.2436922147834481e-02 0.0000000000000000e+00  0.0000000000000000e+00 2.4680098559573243e-02 0.0000000000000000e+00  0.0000000000000000e+00 1.7670978349118290e-02 0.0000000000000000e+00  0.0000000000000000e+00 1.1558712927779689e-02 0.0000000000000000e+00  0.0000000000000000e+00 6.3583143309859274e-03 0.0000000000000000e+00  0.0000000000000000e+00 2.0217731419860537e-03 0.0000000000000000e+00  0.0000000000000000e+00 -1.5473093981108025e-03 0.0000000000000000e+00  0.0000000000000000e+00 -4.4559126448970908e-03 0.0000000000000000e+00  0.0000000000000000e+00 -6.8111414479482268e-03 0.0000000000000000e+00  0.0000000000000000e+00 -8.7093927549003435e-03 0.0000000000000000e+00  0.0000000000000000e+00 -1.0235544775687022e-02 0.0000000000000000e+00  0.0000000000000000e+00 -1.1462558299836745e-02 0.0000000000000000e+00  0.0000000000000000e+00 -1.2449695161800412e-02 0.0000000000000000e+00  0.0000000000000000e+00 -1.3247244210565853e-02 0.0000000000000000e+00  0.0000000000000000e+00 -1.3895151905016350e-02 0.0000000000000000e+00  0.0000000000000000e+00 -1.4426430262287755e-02 0.0000000000000000e+00  0.0000000000000000e+00 -1.4867719276533683e-02 0.0000000000000000e+00  0.0000000000000000e+00 -1.5240658741837299e-02 0.0000000000000000e+00  0.0000000000000000e+00 -1.5563297299788788e-02 0.0000000000000000e+00  0.0000000000000000e+00 -1.5850513916669067e-02 0.0000000000000000e+00  0.0000000000000000e+00 -1.6114547773510093e-02 0.0000000000000000e+00  0.0000000000000000e+00 -1.6366019148704655e-02 0.0000000000000000e+00  0.0000000000000000e+00 -1.6614998440048784e-02 0.0000000000000000e+00  0.0000000000000000e+00 -1.6869660187092149e-02 0.0000000000000000e+00  0.0000000000000000e+00 -1.7138533069353711e-02 0.0000000000000000e+00  0.0000000000000000e+00 -1.7430391812505601e-02 0.0000000000000000e+00  0.0000000000000000e+00 -1.7754846710665413e-02 0.0000000000000000e+00  0.0000000000000000e+00 -1.8123249896233602e-02 0.0000000000000000e+00  0.0000000000000000e+00 -1.8550013134395367e-02 0.0000000000000000e+00  0.0000000000000000e+00 -1.9055339557663056e-02 0.0000000000000000e+00  0.0000000000000000e+00 -1.9668908358652707e-02 0.0000000000000000e+00  0.0000000000000000e+00 -2.0430829511221878e-02 0.0000000000000000e+00  0.0000000000000000e+00 -2.1393141869340940e-02 0.0000000000000000e+00  0.0000000000000000e+00 -2.2579454132929607e-02 0.0000000000000000e+00  1.3239498649336569e-03 -2.3485199634517145e-02 0.0000000000000000e+00  2.3953031204777217e-03 -2.2445544008264363e-02 0.0000000000000000e+00  3.1414779426664672e-03 -2.1299184339576314e-02 0.0000000000000000e+00  3.6224070995037926e-03 -2.0289127186771741e-02 0.0000000000000000e+00  3.9275539366470345e-03 -1.9452557064759721e-02 0.0000000000000000e+00  4.1225953764709201e-03 -1.8754773405590675e-02 0.0000000000000000e+00  4.2509278224354408e-03 -1.8153645009222185e-02 0.0000000000000000e+00  4.3361657216404092e-03 -1.7617843973196812e-02 0.0000000000000000e+00  4.3922816109979402e-03 -1.7125654683619471e-02 0.0000000000000000e+00  4.4277962834582459e-03 -1.6662745679665209e-02 0.0000000000000000e+00  4.4458422179224841e-03 -1.6219384348000597e-02 0.0000000000000000e+00  4.4508812160033717e-03 -1.5788211443732721e-02 0.0000000000000000e+00  4.4446394262132394e-03 -1.5364460872675232e-02 0.0000000000000000e+00  4.4285194068617731e-03 -1.4944604313529121e-02 0.0000000000000000e+00  4.4041173253844441e-03 -1.4526237032884469e-02 0.0000000000000000e+00  4.3715672986379094e-03 -1.4107252889103828e-02 0.0000000000000000e+00  4.3327156650648747e-03 -1.3686314971605280e-02 0.0000000000000000e+00  4.2877113491699868e-03 -1.3262810637692867e-02 0.0000000000000000e+00  4.2371803751833793e-03 -1.2836094701149768e-02 0.0000000000000000e+00  4.1823684138659152e-03 -1.2406139179490823e-02 0.0000000000000000e+00  4.1225807657345754e-03 -1.1972795191398171e-02 0.0000000000000000e+00  4.0596125780215531e-03 -1.1536143633718490e-02 0.0000000000000000e+00  3.9931170272544574e-03 -1.1096530297776701e-02 0.0000000000000000e+00  3.9236601144483699e-03 -1.0654214428465899e-02 0.0000000000000000e+00  3.8521631927641723e-03 -1.0209558069454594e-02 0.0000000000000000e+00  3.7778397032206586e-03 -9.7628049312992807e-03 0.0000000000000000e+00  3.7018810304144719e-03 -9.3141644337739124e-03 0.0000000000000000e+00  3.6243758792770813e-03 -8.8638893702289428e-03 0.0000000000000000e+00  3.5454011775697320e-03 -8.4123023460375042e-03 0.0000000000000000e+00  3.4652691604514108e-03 -7.9592481056430381e-03 0.0000000000000000e+00  3.3837945415937771e-03 -7.5049240951967798e-03 0.0000000000000000e+00  3.3022086777760537e-03 -7.0490111136066146e-03 0.0000000000000000e+00  3.2191519279420079e-03 -6.5914396567457552e-03 0.0000000000000000e+00  3.1362967731272200e-03 -6.1321602847955979e-03 0.0000000000000000e+00  3.0529373471495985e-03 -5.6716192550786476e-03 0.0000000000000000e+00  2.9704706307009106e-03 -5.2120746979228407e-03 0.0000000000000000e+00  2.8910106297780395e-03 -4.7636719821648309e-03 0.0000000000000000e+00  2.8162719195931603e-03 -4.3550376045834146e-03 0.0000000000000000e+00  2.7574154676961813e-03 -4.0539900581380017e-03 0.0000000000000000e+00  2.5697080013870680e-03 -3.9858099552686054e-03 0.0000000000000000e+00  2.2175135686474004e-03 -4.0526116079938491e-03 0.0000000000000000e+00  1.7797080186262536e-03 -4.1409371741170584e-03 0.0000000000000000e+00  1.3203779813408577e-03 -4.2425801997549644e-03 0.0000000000000000e+00  8.6297650697199292e-04 -4.3533802935687071e-03 0.0000000000000000e+00  4.1392876275016965e-04 -4.4701427311914978e-03 0.0000000000000000e+00  -2.5526169778136729e-05 -4.5933617496839640e-03 0.0000000000000000e+00  -4.5516852825391651e-04 -4.7204990470391889e-03 0.0000000000000000e+00  -8.7426630613514507e-04 -4.8522401113274558e-03 0.0000000000000000e+00  -1.2822389293500494e-03 -4.9871873274948053e-03 0.0000000000000000e+00  -1.6778778578842870e-03 -5.1270604657222578e-03 0.0000000000000000e+00  -2.0603166219482459e-03 -5.2696895966219681e-03 0.0000000000000000e+00  -2.4280226869460766e-03 -5.4156096924369394e-03 0.0000000000000000e+00  -2.7792284296007286e-03 -5.5640549854093571e-03 0.0000000000000000e+00  -3.1121567537010968e-03 -5.7156973727913764e-03 0.0000000000000000e+00  -3.4250729767106988e-03 -5.8688766663362139e-03 0.0000000000000000e+00  -3.7155892768911004e-03 -6.0236652256343420e-03 0.0000000000000000e+00  -3.9815337400533413e-03 -6.1794192058066072e-03 0.0000000000000000e+00  -4.2203633267788058e-03 -6.3355148285673939e-03 0.0000000000000000e+00  -4.4295090870644181e-03 -6.4911682725919172e-03 0.0000000000000000e+00  -4.6062368169556408e-03 -6.6458298837334629e-03 0.0000000000000000e+00  -4.7477319050595644e-03 -6.7986766401041824e-03 0.0000000000000000e+00  -4.8514307770350018e-03 -6.9485259447546119e-03 0.0000000000000000e+00  -4.9143824074164115e-03 -7.0950419219152896e-03 0.0000000000000000e+00  -4.9342101823511078e-03 -7.2371394565553483e-03 0.0000000000000000e+00  -4.9085893181043429e-03 -7.3739073870571640e-03 0.0000000000000000e+00  -4.8354083521534499e-03 -7.5045713043894883e-03 0.0000000000000000e+00  -4.7134626648133891e-03 -7.6282959263503196e-03 0.0000000000000000e+00  -4.5411881885359662e-03 -7.7444990762995606e-03 0.0000000000000000e+00  -4.3187661001569608e-03 -7.8523451577906071e-03 0.0000000000000000e+00  -4.0465141496040429e-03 -7.9513650624734207e-03 0.0000000000000000e+00  -3.7255765398899643e-03 -8.0410736817717095e-03 0.0000000000000000e+00  -3.3585654270822350e-03 -8.1211400988322208e-03 0.0000000000000000e+00  -2.9482151246661265e-03 -8.1909054583337824e-03 0.0000000000000000e+00  -2.4988752116034598e-03 -8.2506281623718428e-03 0.0000000000000000e+00  -2.0155752395009047e-03 -8.2997525318327259e-03 0.0000000000000000e+00  -1.5043620079404595e-03 -8.3383064176794051e-03 0.0000000000000000e+00  -9.7204848172406145e-04 -8.3663244411688823e-03 0.0000000000000000e+00  -4.2551109195890051e-04 -8.3833675973860374e-03 0.0000000000000000e+00  1.2761919728797275e-04 -8.3897830442425519e-03 0.0000000000000000e+00  6.7944462293112397e-04 -8.3851339481188537e-03 0.0000000000000000e+00  1.2219424140266673e-03 -8.3695533782863641e-03 0.0000000000000000e+00  1.7477707763406294e-03 -8.3430024261481259e-03 0.0000000000000000e+00  2.2499217968582784e-03 -8.3059015935064619e-03 0.0000000000000000e+00  2.7216489719934455e-03 -8.2570053544206018e-03 0.0000000000000000e+00  3.1580183143655499e-03 -8.1980284813946910e-03 0.0000000000000000e+00  3.5533948051225902e-03 -8.1279967370458412e-03 0.0000000000000000e+00  3.9045780931912929e-03 -8.0476427210439891e-03 0.0000000000000000e+00  4.2084092806136016e-03 -7.9570371239125869e-03 0.0000000000000000e+00  4.4631554241266252e-03 -7.8569264923872215e-03 0.0000000000000000e+00  4.6676312555081314e-03 -7.7476989645372122e-03 0.0000000000000000e+00  4.8219464755259282e-03 -7.6300012502267889e-03 0.0000000000000000e+00  4.9264358146294358e-03 -7.5044224498613706e-03 0.0000000000000000e+00  4.9824953623110709e-03 -7.3720425998985185e-03 0.0000000000000000e+00  4.9919621839032632e-03 -7.2335227061811683e-03 0.0000000000000000e+00  4.9566095462238750e-03 -7.0897375241527330e-03 0.0000000000000000e+00  4.8792137615404126e-03 -6.9417416189385649e-03 0.0000000000000000e+00  4.7622899692357857e-03 -6.7902782896659799e-03 0.0000000000000000e+00  4.6086225323796037e-03 -6.6363116890619470e-03 0.0000000000000000e+00  4.4210285790387922e-03 -6.4806163034034489e-03 0.0000000000000000e+00  4.2021719535694450e-03 -6.3241669579218616e-03 0.0000000000000000e+00  3.9547617037679322e-03 -6.1674350062142355e-03 0.0000000000000000e+00  3.6814060748556546e-03 -6.0113807610894937e-03 0.0000000000000000e+00  3.3846177665148589e-03 -5.8561144195808448e-03 0.0000000000000000e+00  3.0665282678274943e-03 -5.7029340346113492e-03 0.0000000000000000e+00  2.7292751935283958e-03 -5.5518798656741964e-03 0.0000000000000000e+00  2.3748239492003935e-03 -5.4032545645119742e-03 0.0000000000000000e+00  2.0048140433670319e-03 -5.2579205917381725e-03 0.0000000000000000e+00  1.6209816849857286e-03 -5.1155410342627761e-03 0.0000000000000000e+00  1.2244985421199864e-03 -4.9770217523749027e-03 0.0000000000000000e+00  8.1658434046706435e-04 -4.8419276955386469e-03 0.0000000000000000e+00  3.9827652223844843e-04 -4.7113052325318434e-03 0.0000000000000000e+00  -2.9775093543979392e-05 -4.5847280611234480e-03 0.0000000000000000e+00  -4.6703983795456293e-04 -4.4629744107549255e-03 0.0000000000000000e+00  -9.1310190406113784e-04 -4.3465744870929534e-03 0.0000000000000000e+00  -1.3666713038180177e-03 -4.2368084911563429e-03 0.0000000000000000e+00  -1.8205507627817863e-03 -4.1352906329555680e-03 0.0000000000000000e+00  -2.2507170397598826e-03 -4.0486299725176695e-03 0.0000000000000000e+00  -2.5943729247452298e-03 -3.9819849784505533e-03 0.0000000000000000e+00  -1.1571556557699540e-02 -1.2895152305123309e-02 0.0000000000000000e+00  5.1528075463296210e-03 -1.5976519728242145e-02 0.0000000000000000e+00  -2.2058133552624233e-03 -1.2605517856109947e-02 0.0000000000000000e+00  1.0838411164427245e-03 -1.0515790915349906e-02 0.0000000000000000e+00  -8.1617180599480256e-04 -1.5748720597919274e-02 0.0000000000000000e+00  7.3147540421022858e-03 -6.2743108110497631e-02 0.0000000000000000e+00  4.5005006435516930e-03 -6.5168457072505665e-03 0.0000000000000000e+00  2.4572737531591848e-04 -2.1017329591307306e-02 0.0000000000000000e+00  1.2424047303986089e-03 -1.6004594340131125e-02 0.0000000000000000e+00  -5.2674728617578426e-03 -9.2478706496822195e-03 0.0000000000000000e+00  -2.2520222538398335e-03 -1.9087682356249979e-02 0.0000000000000000e+00  4.3357435636958257e-03 -9.4470103277512259e-03 0.0000000000000000e+00  3.3222392957795097e-02 -7.6154334470432988e-02 0.0000000000000000e+00  -1.3469245880076418e-04 -8.7494439887373706e-03 0.0000000000000000e+00  -2.6630385010053908e-03 -6.4289011741146315e-03 0.0000000000000000e+00  1.2461699156269587e-03 -1.3050573318566929e-02 0.0000000000000000e+00  -3.2847330986268881e-03 -8.7777484703511922e-03 0.0000000000000000e+00  -1.4237357481455401e-03 -1.2988311485572421e-02 0.0000000000000000e+00  -5.9935890534079436e-03 -1.5356218900287639e-02 0.0000000000000000e+00  -5.8056354204610167e-04 -7.5803467580920466e-03 0.0000000000000000e+00  -2.0447258453692566e-03 -1.6850012537314184e-02 0.0000000000000000e+00  5.1433931836435496e-03 -6.8594471357964542e-03 0.0000000000000000e+00  1.6140602824080757e-03 -1.4172612284229523e-02 0.0000000000000000e+00  -1.7191777509100756e-02 -2.3201991495766783e-02 0.0000000000000000e+00  4.5503556138962124e-03 -7.8514950004027854e-03 0.0000000000000000e+00  1.5511604605823782e-03 -1.6698792743114678e-02 0.0000000000000000e+00  1.0974162566856497e-02 -1.8027599046212470e-02 0.0000000000000000e+00  1.3011045782550169e-02 -2.0497055723184016e-02 0.0000000000000000e+00  -8.9895276649633597e-04 -1.6086706488283333e-02 0.0000000000000000e+00  -1.3028805630158225e-03 -1.6381282953393011e-02 0.0000000000000000e+00  2.7128390100807742e-03 -8.0434506124335402e-03 0.0000000000000000e+00  -3.4395748033292553e-02 -9.3871201729966609e-03 0.0000000000000000e+00  6.5571369857459648e-03 -1.0544227569710674e-02 0.0000000000000000e+00  2.0566715267381357e-03 -1.7174017080836147e-02 0.0000000000000000e+00  1.3112906378998741e-03 -6.7459128948710702e-03 0.0000000000000000e+00  -6.4409297646974987e-03 -2.9976494866259269e-02 0.0000000000000000e+00  1.4915372354617695e-03 -2.6432440017157863e-02 0.0000000000000000e+00  -1.7193631358323172e-03 -1.0259199554386849e-02 0.0000000000000000e+00  -2.5907231786680388e-03 -1.5013356561962636e-02 0.0000000000000000e+00  -4.