<?xml version="1.0"?>
<VTKFile type="UnstructuredGrid"  version="0.1"  >
<UnstructuredGrid>
<Piece  NumberOfPoints="4372" NumberOfCells="8502">
<Points>
<DataArray  type="Float64"  NumberOfComponents="3"  format="ascii">-2 2 0  0 2 0  0 -2 0  -2 -2 0  -1.949999999999792 2 0  -1.899999999999584 2 0  -1.849999999999375 2 0  -1.799999999999167 2 0  -1.749999999999002 2 0  -1.699999999999306 2 0  -1.649999999999653 2 0  -1.6 2 0  -1.550000000000346 2 0  -1.500000000000693 2 0  -1.45000000000104 2 0  -1.400000000001387 2 0  -1.350000000001733 2 0  -1.30000000000208 2 0  -1.250000000002427 2 0  -1.200000000002774 2 0  -1.150000000003121 2 0  -1.100000000003467 2 0  -1.050000000003814 2 0  -1.000000000004117 2 0  -0.9500000000039528 2 0  -0.9000000000037447 2 0  -0.8500000000035368 2 0  -0.8000000000033287 2 0  -0.7500000000031206 2 0  -0.7000000000029127 2 0  -0.6500000000027044 2 0  -0.6000000000024965 2 0  -0.5500000000022884 2 0  -0.5000000000020806 2 0  -0.4500000000018725 2 0  -0.4000000000016644 2 0  -0.3500000000014563 2 0  -0.3000000000012482 2 0  -0.2500000000010403 2 0  -0.200000000000832 2 0  -0.1500000000006243 2 0  -0.100000000000416 2 0  -0.0500000000002081 2 0  0 1.950000000000139 0  0 1.900000000000277 0  0 1.850000000000416 0  0 1.800000000000555 0  0 1.750000000000693 0  0 1.700000000000832 0  0 1.650000000000971 0  0 1.60000000000111 0  0 1.550000000001248 0  0 1.500000000001387 0  0 1.450000000001526 0  0 1.400000000001664 0  0 1.350000000001803 0  0 1.300000000001942 0  0 1.250000000002081 0  0 1.200000000002219 0  0 1.150000000002358 0  0 1.100000000002496 0  0 1.050000000002635 0  0 1.000000000002774 0  0 0.9500000000029125 0  0 0.9000000000030515 0  0 0.8500000000031902 0  0 0.8000000000033287 0  0 0.7500000000034674 0  0 0.7000000000036062 0  0 0.6500000000037449 0  0 0.6000000000038836 0  0 0.5500000000040224 0  0 0.5000000000041611 0  0 0.4500000000042998 0  0 0.4000000000044384 0  0 0.3500000000045771 0  0 0.3000000000047156 0  0 0.2500000000048543 0  0 0.2000000000049929 0  0 0.1500000000051318 0  0 0.1000000000052705 0  0 0.05000000000540905 0  0 5.504485756091526e-12 0  0 -0.04999999999459082 0  0 -0.09999999999472964 0  0 -0.149999999994868 0  0 -0.1999999999950068 0  0 -0.2499999999951457 0  0 -0.299999999995284 0  0 -0.3499999999954229 0  0 -0.3999999999955617 0  0 -0.4499999999957001 0  0 -0.4999999999958389 0  0 -0.5499999999959777 0  0 -0.5999999999961165 0  0 -0.6499999999962549 0  0 -0.6999999999963937 0  0 -0.7499999999965326 0  0 -0.7999999999966709 0  0 -0.8499999999968098 0  0 -0.8999999999969486 0  0 -0.949999999997087 0  0 -0.9999999999972258 0  0 -1.049999999997365 0  0 -1.099999999997503 0  0 -1.149999999997642 0  0 -1.199999999997781 0  0 -1.249999999997919 0  0 -1.299999999998058 0  0 -1.349999999998198 0  0 -1.399999999998336 0  0 -1.449999999998474 0  0 -1.499999999998613 0  0 -1.549999999998751 0  0 -1.599999999998891 0  0 -1.64999999999903 0  0 -1.699999999999168 0  0 -1.749999999999306 0  0 -1.799999999999445 0  0 -1.849999999999584 0  0 -1.899999999999723 0  0 -1.949999999999862 0  -0.04999999999990573 -2 0  -0.0999999999997993 -2 0  -0.1499999999997056 -2 0  -0.1999999999996293 -2 0  -0.2499999999995475 -2 0  -0.2999999999994072 -2 0  -0.3499999999992615 -2 0  -0.3999999999991157 -2 0  -0.44999999999897 -2 0  -0.4999999999988242 -2 0  -0.5499999999986784 -2 0  -0.5999999999985328 -2 0  -0.649999999998387 -2 0  -0.6999999999982413 -2 0  -0.7499999999980955 -2 0  -0.7999999999979498 -2 0  -0.8499999999978042 -2 0  -0.8999999999976585 -2 0  -0.9499999999975127 -2 0  -0.9999999999973885 -2 0  -1.049999999997498 -2 0  -1.09999999999763 -2 0  -1.149999999997762 -2 0  -1.199999999997894 -2 0  -1.249999999998025 -2 0  -1.299999999998157 -2 0  -1.349999999998289 -2 0  -1.39999999999842 -2 0  -1.449999999998552 -2 0  -1.499999999998683 -2 0  -1.549999999998815 -2 0  -1.599999999998947 -2 0  -1.649999999999078 -2 0  -1.69999999999921 -2 0  -1.749999999999342 -2 0  -1.799999999999474 -2 0  -1.849999999999605 -2 0  -1.899999999999737 -2 0  -1.949999999999869 -2 0  -2 -1.950000000000139 0  -2 -1.900000000000277 0  -2 -1.850000000000416 0  -2 -1.800000000000555 0  -2 -1.750000000000693 0  -2 -1.700000000000832 0  -2 -1.650000000000971 0  -2 -1.60000000000111 0  -2 -1.550000000001248 0  -2 -1.500000000001387 0  -2 -1.450000000001526 0  -2 -1.400000000001664 0  -2 -1.350000000001803 0  -2 -1.300000000001942 0  -2 -1.250000000002081 0  -2 -1.200000000002219 0  -2 -1.150000000002358 0  -2 -1.100000000002496 0  -2 -1.050000000002635 0  -2 -1.000000000002774 0  -2 -0.9500000000029125 0  -2 -0.9000000000030515 0  -2 -0.8500000000031902 0  -2 -0.8000000000033287 0  -2 -0.7500000000034674 0  -2 -0.7000000000036062 0  -2 -0.6500000000037449 0  -2 -0.6000000000038836 0  -2 -0.5500000000040224 0  -2 -0.5000000000041611 0  -2 -0.4500000000042998 0  -2 -0.4000000000044384 0  -2 -0.3500000000045771 0  -2 -0.3000000000047156 0  -2 -0.2500000000048543 0  -2 -0.2000000000049929 0  -2 -0.1500000000051318 0  -2 -0.1000000000052705 0  -2 -0.05000000000540905 0  -2 -5.504485756091526e-12 0  -2 0.04999999999459082 0  -2 0.09999999999472964 0  -2 0.149999999994868 0  -2 0.1999999999950068 0  -2 0.2499999999951457 0  -2 0.299999999995284 0  -2 0.3499999999954229 0  -2 0.3999999999955617 0  -2 0.4499999999957001 0  -2 0.4999999999958389 0  -2 0.5499999999959777 0  -2 0.5999999999961165 0  -2 0.6499999999962549 0  -2 0.6999999999963937 0  -2 0.7499999999965326 0  -2 0.7999999999966709 0  -2 0.8499999999968098 0  -2 0.8999999999969486 0  -2 0.949999999997087 0  -2 0.9999999999972258 0  -2 1.049999999997365 0  -2 1.099999999997503 0  -2 1.149999999997642 0  -2 1.199999999997781 0  -2 1.249999999997919 0  -2 1.299999999998058 0  -2 1.349999999998198 0  -2 1.399999999998336 0  -2 1.449999999998474 0  -2 1.499999999998613 0  -2 1.549999999998751 0  -2 1.599999999998891 0  -2 1.64999999999903 0  -2 1.699999999999168 0  -2 1.749999999999306 0  -2 1.799999999999445 0  -2 1.849999999999584 0  -2 1.899999999999723 0  -2 1.949999999999862 0  -0.9991019297010011 -0.3216894116769606 0  -1.001123860021573 0.7747860510049681 0  -1.157001840564423 -1.161067247012082 0  -1.338027560051535 1.335779534439809 0  -0.6597222222209854 1.340277777778947 0  -0.6585505322915344 0.2210104638722434 0  -1.342670381551713 0.2273264508688188 0  -0.6282204758073073 -0.8120080430170664 0  -0.584236517600881 -1.424312893620663 0  -1.444216308265114 -0.6762220291217811 0  -0.5052068177397626 0.8617966625436217 0  -1.495725541732084 0.8726406067560636 0  -0.5012956875285356 -0.2537377131698332 0  -1.505964779037762 -1.506864731248248 0  -1.533439101629034 -0.2141932377592857 0  -0.9980909254944228 -1.563025322244478 0  -1.573871097078973 -1.076090339205781 0  -0.9938363905916023 1.574658399668859 0  -1.034823301857025 -0.7463046737786232 0  -1.613643420611705 1.613643420611667 0  -0.3789826634893113 1.622833641383097 0  -0.9969623469406674 0.06224895986291776 0  -0.9977570821219073 1.152964911765466 0  -0.3827586671415756 0.4981078379584384 0  -1.617241332858342 0.4981078379584687 0  -0.3735162279179589 -1.10055932464888 0  -0.9514697352838486 0.4195344991084976 0  -0.3671724871528862 -0.5890291676826473 0  -0.8024708669961921 -1.130631989953667 0  -0.3498086031259764 1.176326426441 0  -1.654591699695181 1.175475929606857 0  -0.3418462529951587 0.05839036814553086 0  -1.276352049535552 0.5646214960700082 0  -0.3455726757630372 -1.654274000872155 0  -1.662000930981631 0.09800841401402562 0  -0.7326605900058469 -0.5029780286614124 0  -0.6815317218188973 0.6015493889244842 0  -1.294915051768271 1.68349586060536 0  -0.6978609120161386 1.682418596511037 0  -1.69042813419972 -0.4820149800903958 0  -0.7177378365368432 -1.691938564923942 0  -1.295041566734205 -0.3964989221993158 0  -1.257425593209587 -1.693594420665469 0  -1.246383246782414 -0.1148360514526407 0  -0.7362449271051545 -0.05964032805167522 0  -1.707983706106591 -0.8099422821034401 0  -0.7716224277305496 0.9720234774828133 0  -1.275827556233888 1.059370830779667 0  -1.709731219610966 -1.713515019749574 0  -0.283604077223767 -1.378462113197051 0  -1.331628086330126 -0.9256871504417986 0  -1.718803648671523 -1.313287096736098 0  -1.237157326776588 -1.417624750871973 0  -0.2754377852160807 -0.8405670548436512 0  -0.2604914310470714 0.745077019249353 0  -1.729633983752603 0.7365041208839631 0  -0.2591591556650803 -0.3445128723686334 0  -0.2497705497594995 0.2862378673199174 0  -0.2571319926197782 1.401471300128245 0  -1.750457518478978 1.404891698644917 0  -0.8313391195977098 -1.383947161511035 0  -1.24247470005791 0.8083576983762071 0  -1.75762809210058 -0.121394575294928 0  -1.436009639427774 -1.277692839795198 0  -0.9951285024698884 -0.9801850598617781 0  -0.5860531098993602 1.102916873865959 0  -1.107154037528234 1.367740498542844 0  -1.765353655027761 0.3139359895551974 0  -0.239693234576285 0.9675382248711792 0  -1.762311524625569 0.9715314837693784 0  -1.453060458314344 0.01668426334404738 0  -1.118216683883963 0.2510494134873997 0  -1.487314750788142 -1.768895281943666 0  -0.775695807447912 -0.2851187916602083 0  -1.775021992875828 1.773058151300929 0  -0.2244440016626344 1.771853493176412 0  -0.8797519944267721 1.389822301404418 0  -1.220958717521525 -0.6178523500889427 0  -0.59343770640056 -1.180817576357191 0  -0.9262618789157869 -1.776942446977449 0  -0.2205428235968764 -0.1260615883490472 0  -1.10972339161439 1.777127575560661 0  -0.9394997616645768 -0.5365790009321401 0  -0.812081892264416 -0.7153463049796221 0  -1.783917055200667 -1.008716696077253 0  -0.515263853692324 -1.788606832309386 0  -0.8883686379713935 1.780240085569055 0  -1.545545177082075 0.2916466799431231 0  -1.490071498349099 1.777107893879804 0  -0.5133806951054479 1.777756514587614 0  -1.042544744196485 -1.335739934857762 0  -0.8641039527440014 0.2249999999994 0  -1.475046450324973 0.6546028915744984 0  -1.529677928948796 1.412892352790367 0  -0.4613578028330296 1.41527900122371 0  -1.790928681625402 -1.
[...]
<PointData  Vectors="f_31-0"> 
<DataArray  type="Float64"  Name="f_31-0"  NumberOfComponents="3" format="ascii">-2.5231227250540425e-03 -4.3448487289136622e-03 0.0000000000000000e+00  0.0000000000000000e+00 -2.2793219036078793e-02 0.0000000000000000e+00  0.0000000000000000e+00 -2.2548233202696298e-02 0.0000000000000000e+00  2.4720261166719854e-03 -4.3578998314100252e-03 0.0000000000000000e+00  -2.5480807110615732e-03 -4.4013781065416202e-03 0.0000000000000000e+00  -2.5966304762792278e-03 -4.5949856140658479e-03 0.0000000000000000e+00  -2.6606578331607425e-03 -4.9003448337099683e-03 0.0000000000000000e+00  -2.7334354022950126e-03 -5.2781907701162523e-03 0.0000000000000000e+00  -2.8120069498257958e-03 -5.6958594773420992e-03 0.0000000000000000e+00  -2.8934750916551366e-03 -6.1321679595168349e-03 0.0000000000000000e+00  -2.9764235296987711e-03 -6.5760884700137587e-03 0.0000000000000000e+00  -3.0598328316475101e-03 -7.0224555277847199e-03 0.0000000000000000e+00  -3.1430568319421180e-03 -7.4692195390100944e-03 0.0000000000000000e+00  -3.2256417888061784e-03 -7.9155412673068484e-03 0.0000000000000000e+00  -3.3073746714004063e-03 -8.3610846105369539e-03 0.0000000000000000e+00  -3.3879002361175193e-03 -8.8056190359407007e-03 0.0000000000000000e+00  -3.4670594013997704e-03 -9.2489688891996442e-03 0.0000000000000000e+00  -3.5446238469952090e-03 -9.6909365466155157e-03 0.0000000000000000e+00  -3.6201866653979889e-03 -1.0131265890843701e-02 0.0000000000000000e+00  -3.6935594086807233e-03 -1.0569695240604594e-02 0.0000000000000000e+00  -3.7644278314854381e-03 -1.1005995784911982e-02 0.0000000000000000e+00  -3.8322302329586240e-03 -1.1439863352497538e-02 0.0000000000000000e+00  -3.8966170951515045e-03 -1.1871138814066378e-02 0.0000000000000000e+00  -3.9570606519085333e-03 -1.2299666090630941e-02 0.0000000000000000e+00  -4.0129545483564063e-03 -1.2725459244465933e-02 0.0000000000000000e+00  -4.0636615291337209e-03 -1.3148715282296655e-02 0.0000000000000000e+00  -4.1083970770347403e-03 -1.3569825620267290e-02 0.0000000000000000e+00  -4.1461579957754900e-03 -1.3989556676103890e-02 0.0000000000000000e+00  -4.1760813648490805e-03 -1.4409075998821611e-02 0.0000000000000000e+00  -4.1967764469073784e-03 -1.4830116250325692e-02 0.0000000000000000e+00  -4.2066363797552834e-03 -1.5255091461356202e-02 0.0000000000000000e+00  -4.2035934868835919e-03 -1.5687468734704835e-02 0.0000000000000000e+00  -4.1847624011934195e-03 -1.6132017572048581e-02 0.0000000000000000e+00  -4.1460338327603333e-03 -1.6595299656517494e-02 0.0000000000000000e+00  -4.0815882237189094e-03 -1.7086328016246342e-02 0.0000000000000000e+00  -3.9826792330215502e-03 -1.7617186184818390e-02 0.0000000000000000e+00  -3.8367173960225298e-03 -1.8202609614489797e-02 0.0000000000000000e+00  -3.6264895668480890e-03 -1.8858983995895268e-02 0.0000000000000000e+00  -3.3291052274328249e-03 -1.9597360911584445e-02 0.0000000000000000e+00  -2.9190643992409787e-03 -2.0410565058033472e-02 0.0000000000000000e+00  -2.3763427060239160e-03 -2.1254326998639980e-02 0.0000000000000000e+00  -1.6885723078298748e-03 -2.2027433182374757e-02 0.0000000000000000e+00  -8.8083631091604906e-04 -2.2586803606101508e-02 0.0000000000000000e+00  0.0000000000000000e+00 -2.1901186297916167e-02 0.0000000000000000e+00  0.0000000000000000e+00 -2.1044306495956160e-02 0.0000000000000000e+00  0.0000000000000000e+00 -2.0257742550848806e-02 0.0000000000000000e+00  0.0000000000000000e+00 -1.9564350606590602e-02 0.0000000000000000e+00  0.0000000000000000e+00 -1.8968895687970486e-02 0.0000000000000000e+00  0.0000000000000000e+00 -1.8461472895647799e-02 0.0000000000000000e+00  0.0000000000000000e+00 -1.8027265990277912e-02 0.0000000000000000e+00  0.0000000000000000e+00 -1.7651246018493352e-02 0.0000000000000000e+00  0.0000000000000000e+00 -1.7320333186441415e-02 0.0000000000000000e+00  0.0000000000000000e+00 -1.7023671053630240e-02 0.0000000000000000e+00  0.0000000000000000e+00 -1.6751850754688099e-02 0.0000000000000000e+00  0.0000000000000000e+00 -1.6496311813297727e-02 0.0000000000000000e+00  0.0000000000000000e+00 -1.6249103684703427e-02 0.0000000000000000e+00  0.0000000000000000e+00 -1.6001805004553102e-02 0.0000000000000000e+00  0.0000000000000000e+00 -1.5746069451026124e-02 0.0000000000000000e+00  0.0000000000000000e+00 -1.5471828458421004e-02 0.0000000000000000e+00  0.0000000000000000e+00 -1.5168046513715713e-02 0.0000000000000000e+00  0.0000000000000000e+00 -1.4821713830710135e-02 0.0000000000000000e+00  0.0000000000000000e+00 -1.4416956030757435e-02 0.0000000000000000e+00  0.0000000000000000e+00 -1.3935006600139625e-02 0.0000000000000000e+00  0.0000000000000000e+00 -1.3353010979389053e-02 0.0000000000000000e+00  0.0000000000000000e+00 -1.2642609134417941e-02 0.0000000000000000e+00  0.0000000000000000e+00 -1.1769845697955257e-02 0.0000000000000000e+00  0.0000000000000000e+00 -1.0692971515237255e-02 0.0000000000000000e+00  0.0000000000000000e+00 -9.3605988234469039e-03 0.0000000000000000e+00  0.0000000000000000e+00 -7.7144400906312858e-03 0.0000000000000000e+00  0.0000000000000000e+00 -5.6818998129529244e-03 0.0000000000000000e+00  0.0000000000000000e+00 -3.1813953909871342e-03 0.0000000000000000e+00  0.0000000000000000e+00 -1.2568643294480573e-04 0.0000000000000000e+00  0.0000000000000000e+00 3.5781537888568984e-03 0.0000000000000000e+00  0.0000000000000000e+00 8.0142578363079451e-03 0.0000000000000000e+00  0.0000000000000000e+00 1.3233845527485619e-02 0.0000000000000000e+00  0.0000000000000000e+00 1.9239800031627757e-02 0.0000000000000000e+00  0.0000000000000000e+00 2.5947416360363806e-02 0.0000000000000000e+00  0.0000000000000000e+00 3.3138734566633472e-02 0.0000000000000000e+00  0.0000000000000000e+00 4.0449130423183745e-02 0.0000000000000000e+00  0.0000000000000000e+00 4.7355814606882367e-02 0.0000000000000000e+00  0.0000000000000000e+00 5.3248971448259387e-02 0.0000000000000000e+00  0.0000000000000000e+00 5.7480310462542421e-02 0.0000000000000000e+00  0.0000000000000000e+00 5.9541843170632686e-02 0.0000000000000000e+00  0.0000000000000000e+00 5.9159404649657757e-02 0.0000000000000000e+00  0.0000000000000000e+00 5.6368774351009385e-02 0.0000000000000000e+00  0.0000000000000000e+00 5.1516577009483804e-02 0.0000000000000000e+00  0.0000000000000000e+00 4.5161610228625214e-02 0.0000000000000000e+00  0.0000000000000000e+00 3.7955208998344300e-02 0.0000000000000000e+00  0.0000000000000000e+00 3.0507507015733713e-02 0.0000000000000000e+00  0.0000000000000000e+00 2.3314907067234093e-02 0.0000000000000000e+00  0.0000000000000000e+00 1.6703298206078968e-02 0.0000000000000000e+00  0.0000000000000000e+00 1.0857300380214064e-02 0.0000000000000000e+00  0.0000000000000000e+00 5.8315154484984413e-03 0.0000000000000000e+00  0.0000000000000000e+00 1.6060328498249108e-03 0.0000000000000000e+00  0.0000000000000000e+00 -1.8920227024869334e-03 0.0000000000000000e+00  0.0000000000000000e+00 -4.7532167746249052e-03 0.0000000000000000e+00  0.0000000000000000e+00 -7.0756530235641284e-03 0.0000000000000000e+00  0.0000000000000000e+00 -8.9495838343017584e-03 0.0000000000000000e+00  0.0000000000000000e+00 -1.0456384914460055e-02 0.0000000000000000e+00  0.0000000000000000e+00 -1.1666897997456793e-02 0.0000000000000000e+00  0.0000000000000000e+00 -1.2639438723697998e-02 0.0000000000000000e+00  0.0000000000000000e+00 -1.3423149733149743e-02 0.0000000000000000e+00  0.0000000000000000e+00 -1.4058117183258154e-02 0.0000000000000000e+00  0.0000000000000000e+00 -1.4576877780861112e-02 0.0000000000000000e+00  0.0000000000000000e+00 -1.5006055660338085e-02 0.0000000000000000e+00  0.0000000000000000e+00 -1.5367140056856934e-02 0.0000000000000000e+00  0.0000000000000000e+00 -1.5678134340582125e-02 0.0000000000000000e+00  0.0000000000000000e+00 -1.5953797956961606e-02 0.0000000000000000e+00  0.0000000000000000e+00 -1.6206244835027327e-02 0.0000000000000000e+00  0.0000000000000000e+00 -1.6446038362303871e-02 0.0000000000000000e+00  0.0000000000000000e+00 -1.6682795372791867e-02 0.0000000000000000e+00  0.0000000000000000e+00 -1.6924713035074371e-02 0.0000000000000000e+00  0.0000000000000000e+00 -1.7179727113212480e-02 0.0000000000000000e+00  0.0000000000000000e+00 -1.7456210537204371e-02 0.0000000000000000e+00  0.0000000000000000e+00 -1.7762891073624526e-02 0.0000000000000000e+00  0.0000000000000000e+00 -1.8109701397948690e-02 0.0000000000000000e+00  0.0000000000000000e+00 -1.8508241670745530e-02 0.0000000000000000e+00  0.0000000000000000e+00 -1.8972329766991116e-02 0.0000000000000000e+00  0.0000000000000000e+00 -1.9517073990772162e-02 0.0000000000000000e+00  0.0000000000000000e+00 -2.0153701994678988e-02 0.0000000000000000e+00  0.0000000000000000e+00 -2.0885221973146156e-02 0.0000000000000000e+00  0.0000000000000000e+00 -2.1694624452508623e-02 0.0000000000000000e+00  8.4640504497375199e-04 -2.2368840886149891e-02 0.0000000000000000e+00  1.6252772389304965e-03 -2.1879743594475056e-02 0.0000000000000000e+00  2.2890039836288073e-03 -2.1195504067693570e-02 0.0000000000000000e+00  2.8192355267647653e-03 -2.0438225391662696e-02 0.0000000000000000e+00  3.2229222079484562e-03 -1.9694459786299315e-02 0.0000000000000000e+00  3.5187571722984606e-03 -1.9005736346781824e-02 0.0000000000000000e+00  3.7310144092918434e-03 -1.8381807034302006e-02 0.0000000000000000e+00  3.8800560778071802e-03 -1.7815884751146930e-02 0.0000000000000000e+00  3.9824602188467846e-03 -1.7295869928086745e-02 0.0000000000000000e+00  4.0503994929457256e-03 -1.6809924413655281e-02 0.0000000000000000e+00  4.0916471718612703e-03 -1.6348159838668486e-02 0.0000000000000000e+00  4.1126511794742976e-03 -1.5902670297821643e-02 0.0000000000000000e+00  4.1174173987894276e-03 -1.5467655695183788e-02 0.0000000000000000e+00  4.1088785055744363e-03 -1.5038802015277686e-02 0.0000000000000000e+00  4.0893922632833394e-03 -1.4613026320233501e-02 0.0000000000000000e+00  4.0603378181964817e-03 -1.4188012048140896e-02 0.0000000000000000e+00  4.0234666540360777e-03 -1.3762192815933067e-02 0.0000000000000000e+00  3.9797189685209979e-03 -1.3334541611442777e-02 0.0000000000000000e+00  3.9300365218571344e-03 -1.2904336371987398e-02 0.0000000000000000e+00  3.8754327654716915e-03 -1.2471300724335197e-02 0.0000000000000000e+00  3.8161692016421252e-03 -1.2035283818847208e-02 0.0000000000000000e+00  3.7532988218933407e-03 -1.1596349095831480e-02 0.0000000000000000e+00  3.6870937857107771e-03 -1.1154681755995745e-02 0.0000000000000000e+00  3.6180631552549252e-03 -1.0710513582392348e-02 0.0000000000000000e+00  3.5467568059729965e-03 -1.0264129125267911e-02 0.0000000000000000e+00  3.4731259099087045e-03 -9.8158311474528023e-03 0.0000000000000000e+00  3.3977520110230002e-03 -9.3658571485312186e-03 0.0000000000000000e+00  3.3208375241939410e-03 -8.9144438933742194e-03 0.0000000000000000e+00  3.2425314925245163e-03 -8.4618211473368246e-03 0.0000000000000000e+00  3.1630729274693533e-03 -8.0080652899364030e-03 0.0000000000000000e+00  3.0825500726571788e-03 -7.5533808424970280e-03 0.0000000000000000e+00  3.0015297076425732e-03 -7.0979801407284110e-03 0.0000000000000000e+00  2.9199198350535111e-03 -6.6426189894818995e-03 0.0000000000000000e+00  2.8387275167637894e-03 -6.1893516695758558e-03 0.0000000000000000e+00  2.7585667871327236e-03 -5.7433162077217478e-03 0.0000000000000000e+00  2.6811730234859873e-03 -5.3158639842141760e-03 0.0000000000000000e+00  2.6091519424725662e-03 -4.9288200564080358e-03 0.0000000000000000e+00  2.5454942302004266e-03 -4.6156268346410120e-03 0.0000000000000000e+00  2.4972997469657619e-03 -4.4163758001214805e-03 0.0000000000000000e+00  2.3635725042301524e-03 -4.3841385207696749e-03 0.0000000000000000e+00  2.1000558128876036e-03 -4.4370749545884743e-03 0.0000000000000000e+00  1.7344344803828752e-03 -4.5099794047455868e-03 0.0000000000000000e+00  1.3133976470122795e-03 -4.5977897512756351e-03 0.0000000000000000e+00  8.6960676361079415e-04 -4.6970538263930040e-03 0.0000000000000000e+00  4.2233849389064032e-04 -4.8049074590057403e-03 0.0000000000000000e+00  -1.9129153129513002e-05 -4.9199141967996365e-03 0.0000000000000000e+00  -4.5087724674820810e-04 -5.0402221241393442e-03 0.0000000000000000e+00  -8.7109433308059012e-04 -5.1651799759238571e-03 0.0000000000000000e+00  -1.2788018741677620e-03 -5.2937521492695799e-03 0.0000000000000000e+00  -1.6729454558679796e-03 -5.4259447208960506e-03 0.0000000000000000e+00  -2.0525148582447787e-03 -5.5607318971649076e-03 0.0000000000000000e+00  -2.4161100141330762e-03 -5.6978263915374062e-03 0.0000000000000000e+00  -2.7622123465668971e-03 -5.8366134265551281e-03 0.0000000000000000e+00  -3.0889956501528051e-03 -5.9769015674469407e-03 0.0000000000000000e+00  -3.3946309782620292e-03 -6.1177305577512463e-03 0.0000000000000000e+00  -3.6769447056519055e-03 -6.2586494117192505e-03 0.0000000000000000e+00  -3.9337059772074955e-03 -6.3989638833230212e-03 0.0000000000000000e+00  -4.1624609700923500e-03 -6.5379603059026615e-03 0.0000000000000000e+00  -4.3607368390965583e-03 -6.6748266340211646e-03 0.0000000000000000e+00  -4.5259238126303556e-03 -6.8089600893511439e-03 0.0000000000000000e+00  -4.6553227247801456e-03 -6.9394442426991727e-03 0.0000000000000000e+00  -4.7464905777155402e-03 -7.0654445370920953e-03 0.0000000000000000e+00  -4.7967462291625901e-03 -7.1863759314079552e-03 0.0000000000000000e+00  -4.8038570048228504e-03 -7.3015049907559091e-03 0.0000000000000000e+00  -4.7657579116309867e-03 -7.4101245234798980e-03 0.0000000000000000e+00  -4.6806675563806901e-03 -7.5117433344547803e-03 0.0000000000000000e+00  -4.5475321090012923e-03 -7.6058746974881986e-03 0.0000000000000000e+00  -4.3652753909627813e-03 -7.6923218691814137e-03 0.0000000000000000e+00  -4.1341844065389049e-03 -7.7707605371487472e-03 0.0000000000000000e+00  -3.8549495771483633e-03 -7.8412052220217191e-03 0.0000000000000000e+00  -3.5289965667331556e-03 -7.9037247169930543e-03 0.0000000000000000e+00  -3.1589276373276435e-03 -7.9584265180078374e-03 0.0000000000000000e+00  -2.7478781453226723e-03 -8.0054568171238731e-03 0.0000000000000000e+00  -2.3002673003810585e-03 -8.0452576658553657e-03 0.0000000000000000e+00  -1.8211715640118567e-03 -8.0779710235812409e-03 0.0000000000000000e+00  -1.3164436721755260e-03 -8.1039270024803791e-03 0.0000000000000000e+00  -7.9269993220953212e-04 -8.1233045728669375e-03 0.0000000000000000e+00  -2.5691402225351269e-04 -8.1361154776482866e-03 0.0000000000000000e+00  2.8349795239587008e-04 -8.1425081691819303e-03 0.0000000000000000e+00  8.2101959641911254e-04 -8.1423082522481694e-03 0.0000000000000000e+00  1.3481637328619878e-03 -8.1353669985899362e-03 0.0000000000000000e+00  1.8577810321954847e-03 -8.1213066498646777e-03 0.0000000000000000e+00  2.3432369155427330e-03 -8.1000868816951330e-03 0.0000000000000000e+00  2.7981297660748753e-03 -8.0706442507236190e-03 0.0000000000000000e+00  3.2176698832479971e-03 -8.0333617540783980e-03 0.0000000000000000e+00  3.5968406098220332e-03 -7.9874291781128776e-03 0.0000000000000000e+00  3.9323832656361886e-03 -7.9327746397330860e-03 0.0000000000000000e+00  4.2215165872799085e-03 -7.8691015741569406e-03 0.0000000000000000e+00  4.4626286523466903e-03 -7.7965149783810984e-03 0.0000000000000000e+00  4.6546305482632307e-03 -7.7150507028605955e-03 0.0000000000000000e+00  4.7976302085045233e-03 -7.6249222330980835e-03 0.0000000000000000e+00  4.8920999383385653e-03 -7.5264440349027267e-03 0.0000000000000000e+00  4.9393373393203160e-03 -7.4202702757595754e-03 0.0000000000000000e+00  4.9410911969352935e-03 -7.3069592393816161e-03 0.0000000000000000e+00  4.8992299395966710e-03 -7.1870810546378026e-03 0.0000000000000000e+00  4.8163208270772268e-03 -7.0616154973091897e-03 0.0000000000000000e+00  4.6948401910119576e-03 -6.9312619198209193e-03 0.0000000000000000e+00  4.5374660824133821e-03 -6.7968679431027095e-03 0.0000000000000000e+00  4.3469013326838286e-03 -6.6593175502414025e-03 0.0000000000000000e+00  4.1257657540571648e-03 -6.5194019429452689e-03 0.0000000000000000e+00  3.8766724160575372e-03 -6.3778853990790517e-03 0.0000000000000000e+00  3.6021232253579984e-03 -6.2356028722511808e-03 0.0000000000000000e+00  3.3045105756673502e-03 -6.0931112346742332e-03 0.0000000000000000e+00  2.9859358511311420e-03 -5.9512553842446941e-03 0.0000000000000000e+00  2.6484706959210903e-03 -5.8105277448866266e-03 0.0000000000000000e+00  2.2939463977951877e-03 -5.6714218581519751e-03 0.0000000000000000e+00  1.9239893396413772e-03 -5.5345450285016334e-03 0.0000000000000000e+00  1.5401035924879247e-03 -5.4002156759437071e-03 0.0000000000000000e+00  1.1434758294821110e-03 -5.2690159122306315e-03 0.0000000000000000e+00  7.3521707754172318e-04 -5.1412408669289679e-03 0.0000000000000000e+00  3.1624571672499635e-04 -5.0175803850951032e-03 0.0000000000000000e+00  -1.1233919054660979e-04 -4.8985699164133178e-03 0.0000000000000000e+00  -5.4865716708982844e-04 -4.7851686059696688e-03 0.0000000000000000e+00  -9.8830215158250147e-04 -4.6786503982394600e-03 0.0000000000000000e+00  -1.4214073889755833e-03 -4.5808913894650836e-03 0.0000000000000000e+00  -1.8281355656297078e-03 -4.4942277540756205e-03 0.0000000000000000e+00  -2.1763214161764233e-03 -4.4227862576883435e-03 0.0000000000000000e+00  -2.4234256609123581e-03 -4.3704565179551727e-03 0.0000000000000000e+00  -1.0676833857714733e-02 -1.3061127878939718e-02 0.0000000000000000e+00  4.8588278975698141e-03 -1.6009457602877884e-02 0.0000000000000000e+00  -2.2753321058137771e-03 -1.2610455846290395e-02 0.0000000000000000e+00  1.0083556125968277e-03 -1.0513193416343646e-02 0.0000000000000000e+00  -8.7559207022738458e-04 -1.5663260552651624e-02 0.0000000000000000e+00  2.1621057172999925e-03 -5.8288581940810123e-02 0.0000000000000000e+00  4.6630524019129985e-03 -6.9077477361377841e-03 0.0000000000000000e+00  1.3950521162991062e-04 -2.1172783493077746e-02 0.0000000000000000e+00  1.1681047925671878e-03 -1.6066680547511050e-02 0.0000000000000000e+00  -5.2115071552789492e-03 -9.1705857295014924e-03 0.0000000000000000e+00  -2.2953394306207357e-03 -1.8800939614894725e-02 0.0000000000000000e+00  4.2714029184668734e-03 -9.5103928871368669e-03 0.0000000000000000e+00  2.8040061781596459e-02 -6.8057143827090355e-02 0.0000000000000000e+00  -1.6793340237833252e-04 -8.7733951021232177e-03 0.0000000000000000e+00  -2.4244256255910499e-03 -6.4419625355841203e-03 0.0000000000000000e+00  1.1803223840123828e-03 -1.3099059318987173e-02 0.0000000000000000e+00  -3.2953317757349276e-03 -8.7651404063314800e-03 0.0000000000000000e+00  -1.4832415636199031e-03 -1.2953179377476681e-02 0.0000000000000000e+00  -6.0728915761266026e-03 -1.5287570949237612e-02 0.0000000000000000e+00  -6.3671528123090168e-04 -7.5840284059151813e-03 0.0000000000000000e+00  -2.0541034194311255e-03 -1.6780692676952608e-02 0.0000000000000000e+00  5.7180142870180565e-03 -9.6493283159651434e-03 0.0000000000000000e+00  1.4932879092334219e-03 -1.4133655610954509e-02 0.0000000000000000e+00  -1.6039345754355321e-02 -2.2227189616790981e-02 0.0000000000000000e+00  4.5929302469213326e-03 -7.9682816484022371e-03 0.0000000000000000e+00  1.5045098139721265e-03 -1.6786965940732316e-02 0.0000000000000000e+00  1.0068199693831503e-02 -1.8718923608437760e-02 0.0000000000000000e+00  1.3041105219571119e-02 -2.0623159434468647e-02 0.0000000000000000e+00  -9.9621880219358683e-04 -1.6144155123372105e-02 0.0000000000000000e+00  -1.3104123185416986e-03 -1.6255776892233037e-02 0.0000000000000000e+00  2.6548032717780864e-03 -8.0571429911155523e-03 0.0000000000000000e+00  -2.4252617883506002e-02 -1.7767151896762742e-02 0.0000000000000000e+00  6.4310086847931061e-03 -1.0794866183553953e-02 0.0000000000000000e+00  1.9674137867574069e-03 -1.7209057556105398e-02 0.0000000000000000e+00  1.4915177516605050e-03 -6.8342020119842566e-03 0.0000000000000000e+00  -6.1392650784660068e-03 -3.0173673951232473e-02 0.0000000000000000e+00  8.8762800221026019e-04 -2.5879686448622499e-02 0.0000000000000000e+00  -1.7689650306640680e-03 -1.0245882670457281e-02 0.0000000000000000e+00  -2.6249383971026496e-03 -1.4964016224263558e-02 0.0000000000000000e+00  -4