<?xml version="1.0"?>
<VTKFile type="UnstructuredGrid"  version="0.1"  >
<UnstructuredGrid>
<Piece  NumberOfPoints="4372" NumberOfCells="8502">
<Points>
<DataArray  type="Float64"  NumberOfComponents="3"  format="ascii">-2 2 0  0 2 0  0 -2 0  -2 -2 0  -1.949999999999792 2 0  -1.899999999999584 2 0  -1.849999999999375 2 0  -1.799999999999167 2 0  -1.749999999999002 2 0  -1.699999999999306 2 0  -1.649999999999653 2 0  -1.6 2 0  -1.550000000000346 2 0  -1.500000000000693 2 0  -1.45000000000104 2 0  -1.400000000001387 2 0  -1.350000000001733 2 0  -1.30000000000208 2 0  -1.250000000002427 2 0  -1.200000000002774 2 0  -1.150000000003121 2 0  -1.100000000003467 2 0  -1.050000000003814 2 0  -1.000000000004117 2 0  -0.9500000000039528 2 0  -0.9000000000037447 2 0  -0.8500000000035368 2 0  -0.8000000000033287 2 0  -0.7500000000031206 2 0  -0.7000000000029127 2 0  -0.6500000000027044 2 0  -0.6000000000024965 2 0  -0.5500000000022884 2 0  -0.5000000000020806 2 0  -0.4500000000018725 2 0  -0.4000000000016644 2 0  -0.3500000000014563 2 0  -0.3000000000012482 2 0  -0.2500000000010403 2 0  -0.200000000000832 2 0  -0.1500000000006243 2 0  -0.100000000000416 2 0  -0.0500000000002081 2 0  0 1.950000000000139 0  0 1.900000000000277 0  0 1.850000000000416 0  0 1.800000000000555 0  0 1.750000000000693 0  0 1.700000000000832 0  0 1.650000000000971 0  0 1.60000000000111 0  0 1.550000000001248 0  0 1.500000000001387 0  0 1.450000000001526 0  0 1.400000000001664 0  0 1.350000000001803 0  0 1.300000000001942 0  0 1.250000000002081 0  0 1.200000000002219 0  0 1.150000000002358 0  0 1.100000000002496 0  0 1.050000000002635 0  0 1.000000000002774 0  0 0.9500000000029125 0  0 0.9000000000030515 0  0 0.8500000000031902 0  0 0.8000000000033287 0  0 0.7500000000034674 0  0 0.7000000000036062 0  0 0.6500000000037449 0  0 0.6000000000038836 0  0 0.5500000000040224 0  0 0.5000000000041611 0  0 0.4500000000042998 0  0 0.4000000000044384 0  0 0.3500000000045771 0  0 0.3000000000047156 0  0 0.2500000000048543 0  0 0.2000000000049929 0  0 0.1500000000051318 0  0 0.1000000000052705 0  0 0.05000000000540905 0  0 5.504485756091526e-12 0  0 -0.04999999999459082 0  0 -0.09999999999472964 0  0 -0.149999999994868 0  0 -0.1999999999950068 0  0 -0.2499999999951457 0  0 -0.299999999995284 0  0 -0.3499999999954229 0  0 -0.3999999999955617 0  0 -0.4499999999957001 0  0 -0.4999999999958389 0  0 -0.5499999999959777 0  0 -0.5999999999961165 0  0 -0.6499999999962549 0  0 -0.6999999999963937 0  0 -0.7499999999965326 0  0 -0.7999999999966709 0  0 -0.8499999999968098 0  0 -0.8999999999969486 0  0 -0.949999999997087 0  0 -0.9999999999972258 0  0 -1.049999999997365 0  0 -1.099999999997503 0  0 -1.149999999997642 0  0 -1.199999999997781 0  0 -1.249999999997919 0  0 -1.299999999998058 0  0 -1.349999999998198 0  0 -1.399999999998336 0  0 -1.449999999998474 0  0 -1.499999999998613 0  0 -1.549999999998751 0  0 -1.599999999998891 0  0 -1.64999999999903 0  0 -1.699999999999168 0  0 -1.749999999999306 0  0 -1.799999999999445 0  0 -1.849999999999584 0  0 -1.899999999999723 0  0 -1.949999999999862 0  -0.04999999999990573 -2 0  -0.0999999999997993 -2 0  -0.1499999999997056 -2 0  -0.1999999999996293 -2 0  -0.2499999999995475 -2 0  -0.2999999999994072 -2 0  -0.3499999999992615 -2 0  -0.3999999999991157 -2 0  -0.44999999999897 -2 0  -0.4999999999988242 -2 0  -0.5499999999986784 -2 0  -0.5999999999985328 -2 0  -0.649999999998387 -2 0  -0.6999999999982413 -2 0  -0.7499999999980955 -2 0  -0.7999999999979498 -2 0  -0.8499999999978042 -2 0  -0.8999999999976585 -2 0  -0.9499999999975127 -2 0  -0.9999999999973885 -2 0  -1.049999999997498 -2 0  -1.09999999999763 -2 0  -1.149999999997762 -2 0  -1.199999999997894 -2 0  -1.249999999998025 -2 0  -1.299999999998157 -2 0  -1.349999999998289 -2 0  -1.39999999999842 -2 0  -1.449999999998552 -2 0  -1.499999999998683 -2 0  -1.549999999998815 -2 0  -1.599999999998947 -2 0  -1.649999999999078 -2 0  -1.69999999999921 -2 0  -1.749999999999342 -2 0  -1.799999999999474 -2 0  -1.849999999999605 -2 0  -1.899999999999737 -2 0  -1.949999999999869 -2 0  -2 -1.950000000000139 0  -2 -1.900000000000277 0  -2 -1.850000000000416 0  -2 -1.800000000000555 0  -2 -1.750000000000693 0  -2 -1.700000000000832 0  -2 -1.650000000000971 0  -2 -1.60000000000111 0  -2 -1.550000000001248 0  -2 -1.500000000001387 0  -2 -1.450000000001526 0  -2 -1.400000000001664 0  -2 -1.350000000001803 0  -2 -1.300000000001942 0  -2 -1.250000000002081 0  -2 -1.200000000002219 0  -2 -1.150000000002358 0  -2 -1.100000000002496 0  -2 -1.050000000002635 0  -2 -1.000000000002774 0  -2 -0.9500000000029125 0  -2 -0.9000000000030515 0  -2 -0.8500000000031902 0  -2 -0.8000000000033287 0  -2 -0.7500000000034674 0  -2 -0.7000000000036062 0  -2 -0.6500000000037449 0  -2 -0.6000000000038836 0  -2 -0.5500000000040224 0  -2 -0.5000000000041611 0  -2 -0.4500000000042998 0  -2 -0.4000000000044384 0  -2 -0.3500000000045771 0  -2 -0.3000000000047156 0  -2 -0.2500000000048543 0  -2 -0.2000000000049929 0  -2 -0.1500000000051318 0  -2 -0.1000000000052705 0  -2 -0.05000000000540905 0  -2 -5.504485756091526e-12 0  -2 0.04999999999459082 0  -2 0.09999999999472964 0  -2 0.149999999994868 0  -2 0.1999999999950068 0  -2 0.2499999999951457 0  -2 0.299999999995284 0  -2 0.3499999999954229 0  -2 0.3999999999955617 0  -2 0.4499999999957001 0  -2 0.4999999999958389 0  -2 0.5499999999959777 0  -2 0.5999999999961165 0  -2 0.6499999999962549 0  -2 0.6999999999963937 0  -2 0.7499999999965326 0  -2 0.7999999999966709 0  -2 0.8499999999968098 0  -2 0.8999999999969486 0  -2 0.949999999997087 0  -2 0.9999999999972258 0  -2 1.049999999997365 0  -2 1.099999999997503 0  -2 1.149999999997642 0  -2 1.199999999997781 0  -2 1.249999999997919 0  -2 1.299999999998058 0  -2 1.349999999998198 0  -2 1.399999999998336 0  -2 1.449999999998474 0  -2 1.499999999998613 0  -2 1.549999999998751 0  -2 1.599999999998891 0  -2 1.64999999999903 0  -2 1.699999999999168 0  -2 1.749999999999306 0  -2 1.799999999999445 0  -2 1.849999999999584 0  -2 1.899999999999723 0  -2 1.949999999999862 0  -0.9991019297010011 -0.3216894116769606 0  -1.001123860021573 0.7747860510049681 0  -1.157001840564423 -1.161067247012082 0  -1.338027560051535 1.335779534439809 0  -0.6597222222209854 1.340277777778947 0  -0.6585505322915344 0.2210104638722434 0  -1.342670381551713 0.2273264508688188 0  -0.6282204758073073 -0.8120080430170664 0  -0.584236517600881 -1.424312893620663 0  -1.444216308265114 -0.6762220291217811 0  -0.5052068177397626 0.8617966625436217 0  -1.495725541732084 0.8726406067560636 0  -0.5012956875285356 -0.2537377131698332 0  -1.505964779037762 -1.506864731248248 0  -1.533439101629034 -0.2141932377592857 0  -0.9980909254944228 -1.563025322244478 0  -1.573871097078973 -1.076090339205781 0  -0.9938363905916023 1.574658399668859 0  -1.034823301857025 -0.7463046737786232 0  -1.613643420611705 1.613643420611667 0  -0.3789826634893113 1.622833641383097 0  -0.9969623469406674 0.06224895986291776 0  -0.9977570821219073 1.152964911765466 0  -0.3827586671415756 0.4981078379584384 0  -1.617241332858342 0.4981078379584687 0  -0.3735162279179589 -1.10055932464888 0  -0.9514697352838486 0.4195344991084976 0  -0.3671724871528862 -0.5890291676826473 0  -0.8024708669961921 -1.130631989953667 0  -0.3498086031259764 1.176326426441 0  -1.654591699695181 1.175475929606857 0  -0.3418462529951587 0.05839036814553086 0  -1.276352049535552 0.5646214960700082 0  -0.3455726757630372 -1.654274000872155 0  -1.662000930981631 0.09800841401402562 0  -0.7326605900058469 -0.5029780286614124 0  -0.6815317218188973 0.6015493889244842 0  -1.294915051768271 1.68349586060536 0  -0.6978609120161386 1.682418596511037 0  -1.69042813419972 -0.4820149800903958 0  -0.7177378365368432 -1.691938564923942 0  -1.295041566734205 -0.3964989221993158 0  -1.257425593209587 -1.693594420665469 0  -1.246383246782414 -0.1148360514526407 0  -0.7362449271051545 -0.05964032805167522 0  -1.707983706106591 -0.8099422821034401 0  -0.7716224277305496 0.9720234774828133 0  -1.275827556233888 1.059370830779667 0  -1.709731219610966 -1.713515019749574 0  -0.283604077223767 -1.378462113197051 0  -1.331628086330126 -0.9256871504417986 0  -1.718803648671523 -1.313287096736098 0  -1.237157326776588 -1.417624750871973 0  -0.2754377852160807 -0.8405670548436512 0  -0.2604914310470714 0.745077019249353 0  -1.729633983752603 0.7365041208839631 0  -0.2591591556650803 -0.3445128723686334 0  -0.2497705497594995 0.2862378673199174 0  -0.2571319926197782 1.401471300128245 0  -1.750457518478978 1.404891698644917 0  -0.8313391195977098 -1.383947161511035 0  -1.24247470005791 0.8083576983762071 0  -1.75762809210058 -0.121394575294928 0  -1.436009639427774 -1.277692839795198 0  -0.9951285024698884 -0.9801850598617781 0  -0.5860531098993602 1.102916873865959 0  -1.107154037528234 1.367740498542844 0  -1.765353655027761 0.3139359895551974 0  -0.239693234576285 0.9675382248711792 0  -1.762311524625569 0.9715314837693784 0  -1.453060458314344 0.01668426334404738 0  -1.118216683883963 0.2510494134873997 0  -1.487314750788142 -1.768895281943666 0  -0.775695807447912 -0.2851187916602083 0  -1.775021992875828 1.773058151300929 0  -0.2244440016626344 1.771853493176412 0  -0.8797519944267721 1.389822301404418 0  -1.220958717521525 -0.6178523500889427 0  -0.59343770640056 -1.180817576357191 0  -0.9262618789157869 -1.776942446977449 0  -0.2205428235968764 -0.1260615883490472 0  -1.10972339161439 1.777127575560661 0  -0.9394997616645768 -0.5365790009321401 0  -0.812081892264416 -0.7153463049796221 0  -1.783917055200667 -1.008716696077253 0  -0.515263853692324 -1.788606832309386 0  -0.8883686379713935 1.780240085569055 0  -1.545545177082075 0.2916466799431231 0  -1.490071498349099 1.777107893879804 0  -0.5133806951054479 1.777756514587614 0  -1.042544744196485 -1.335739934857762 0  -0.8641039527440014 0.2249999999994 0  -1.475046450324973 0.6546028915744984 0  -1.529677928948796 1.412892352790367 0  -0.4613578028330296 1.41527900122371 0  -1.790928681625402 -1.
[...]
<PointData  Vectors="f_31-0"> 
<DataArray  type="Float64"  Name="f_31-0"  NumberOfComponents="3" format="ascii">-2.5018104707397668e-03 -4.3845438113739510e-03 0.0000000000000000e+00  0.0000000000000000e+00 -2.2683393341841915e-02 0.0000000000000000e+00  0.0000000000000000e+00 -2.2437846332034259e-02 0.0000000000000000e+00  2.4463529939511867e-03 -4.3990724052353283e-03 0.0000000000000000e+00  -2.5262748893594192e-03 -4.4383167552151208e-03 0.0000000000000000e+00  -2.5739610937002741e-03 -4.6244542925894735e-03 0.0000000000000000e+00  -2.6370265550547749e-03 -4.9208793669332507e-03 0.0000000000000000e+00  -2.7090006084904599e-03 -5.2911188956966402e-03 0.0000000000000000e+00  -2.7869497280727479e-03 -5.7035148089771958e-03 0.0000000000000000e+00  -2.8680099381454913e-03 -6.1366044491855528e-03 0.0000000000000000e+00  -2.9507129134928628e-03 -6.5786424848788315e-03 0.0000000000000000e+00  -3.0339930681434362e-03 -7.0238686030753977e-03 0.0000000000000000e+00  -3.1171645291747018e-03 -7.4698662795416437e-03 0.0000000000000000e+00  -3.1997502935939221e-03 -7.9156087842612768e-03 0.0000000000000000e+00  -3.2815078710153323e-03 -8.3606722665628495e-03 0.0000000000000000e+00  -3.3620815543543240e-03 -8.8047875006831162e-03 0.0000000000000000e+00  -3.4412966945402725e-03 -9.2477583431615339e-03 0.0000000000000000e+00  -3.5189161971383182e-03 -9.6893788372142877e-03 0.0000000000000000e+00  -3.5945483224135598e-03 -1.0129388480211946e-02 0.0000000000000000e+00  -3.6679860541383529e-03 -1.0567524817603225e-02 0.0000000000000000e+00  -3.7389049182944877e-03 -1.1003560065420120e-02 0.0000000000000000e+00  -3.8067591690000720e-03 -1.1437200683712389e-02 0.0000000000000000e+00  -3.8711821452362951e-03 -1.1868288563324406e-02 0.0000000000000000e+00  -3.9316325080362424e-03 -1.2296685336588512e-02 0.0000000000000000e+00  -3.9874960293594377e-03 -1.2722416620510121e-02 0.0000000000000000e+00  -4.0381098654015254e-03 -1.3145698478274103e-02 0.0000000000000000e+00  -4.0826683319131066e-03 -1.3566948868467299e-02 0.0000000000000000e+00  -4.1201507184391124e-03 -1.3986964446254701e-02 0.0000000000000000e+00  -4.1496207608714792e-03 -1.4406955231687675e-02 0.0000000000000000e+00  -4.1696388515439567e-03 -1.4828710072910527e-02 0.0000000000000000e+00  -4.1785108062476857e-03 -1.5254719113455772e-02 0.0000000000000000e+00  -4.1740391704423434e-03 -1.5688545151793538e-02 0.0000000000000000e+00  -4.1531685662382113e-03 -1.6135071353578501e-02 0.0000000000000000e+00  -4.1115824561709464e-03 -1.6600974436555106e-02 0.0000000000000000e+00  -4.0431935256482138e-03 -1.7095305700210891e-02 0.0000000000000000e+00  -3.9390474066227296e-03 -1.7629964715165005e-02 0.0000000000000000e+00  -3.7865035061910822e-03 -1.8218910125463880e-02 0.0000000000000000e+00  -3.5687887690142323e-03 -1.8876690395356246e-02 0.0000000000000000e+00  -3.2643358225744054e-03 -1.9610982434011513e-02 0.0000000000000000e+00  -2.8502611843675627e-03 -2.0410227026351917e-02 0.0000000000000000e+00  -2.3099705104899391e-03 -2.1227226167017266e-02 0.0000000000000000e+00  -1.6349299008387363e-03 -2.1964273765899898e-02 0.0000000000000000e+00  -8.5038137841929632e-04 -2.2490631763686080e-02 0.0000000000000000e+00  0.0000000000000000e+00 -2.1822907555875785e-02 0.0000000000000000e+00  0.0000000000000000e+00 -2.0993526283534705e-02 0.0000000000000000e+00  0.0000000000000000e+00 -2.0227300892819072e-02 0.0000000000000000e+00  0.0000000000000000e+00 -1.9546539864446537e-02 0.0000000000000000e+00  0.0000000000000000e+00 -1.8957733981614423e-02 0.0000000000000000e+00  0.0000000000000000e+00 -1.8453368747187053e-02 0.0000000000000000e+00  0.0000000000000000e+00 -1.8020423967937019e-02 0.0000000000000000e+00  0.0000000000000000e+00 -1.7644901451050764e-02 0.0000000000000000e+00  0.0000000000000000e+00 -1.7314201680276295e-02 0.0000000000000000e+00  0.0000000000000000e+00 -1.7017670991012351e-02 0.0000000000000000e+00  0.0000000000000000e+00 -1.6745984930775306e-02 0.0000000000000000e+00  0.0000000000000000e+00 -1.6490623616951132e-02 0.0000000000000000e+00  0.0000000000000000e+00 -1.6243667795492744e-02 0.0000000000000000e+00  0.0000000000000000e+00 -1.5996727305568156e-02 0.0000000000000000e+00  0.0000000000000000e+00 -1.5741489553177199e-02 0.0000000000000000e+00  0.0000000000000000e+00 -1.5467937979938774e-02 0.0000000000000000e+00  0.0000000000000000e+00 -1.5165091124544415e-02 0.0000000000000000e+00  0.0000000000000000e+00 -1.4820017495168883e-02 0.0000000000000000e+00  0.0000000000000000e+00 -1.4416942179215934e-02 0.0000000000000000e+00  0.0000000000000000e+00 -1.3937225571877069e-02 0.0000000000000000e+00  0.0000000000000000e+00 -1.3358172129061388e-02 0.0000000000000000e+00  0.0000000000000000e+00 -1.2651649944997687e-02 0.0000000000000000e+00  0.0000000000000000e+00 -1.1783977106134845e-02 0.0000000000000000e+00  0.0000000000000000e+00 -1.0713780108298720e-02 0.0000000000000000e+00  0.0000000000000000e+00 -9.3901787744275680e-03 0.0000000000000000e+00  0.0000000000000000e+00 -7.7554734556782457e-03 0.0000000000000000e+00  0.0000000000000000e+00 -5.7379522444701118e-03 0.0000000000000000e+00  0.0000000000000000e+00 -3.2571281445663361e-03 0.0000000000000000e+00  0.0000000000000000e+00 -2.2714744766383604e-04 0.0000000000000000e+00  0.0000000000000000e+00 3.4431049732919529e-03 0.0000000000000000e+00  0.0000000000000000e+00 7.8356034686362670e-03 0.0000000000000000e+00  0.0000000000000000e+00 1.2999107708051728e-02 0.0000000000000000e+00  0.0000000000000000e+00 1.8934305410426990e-02 0.0000000000000000e+00  0.0000000000000000e+00 2.5555101398792780e-02 0.0000000000000000e+00  0.0000000000000000e+00 3.2644749810261241e-02 0.0000000000000000e+00  0.0000000000000000e+00 3.9843885544896922e-02 0.0000000000000000e+00  0.0000000000000000e+00 4.6640376478519915e-02 0.0000000000000000e+00  0.0000000000000000e+00 5.2439859105287250e-02 0.0000000000000000e+00  0.0000000000000000e+00 5.6612141564594279e-02 0.0000000000000000e+00  0.0000000000000000e+00 5.8662823830509969e-02 0.0000000000000000e+00  0.0000000000000000e+00 5.8323306238667903e-02 0.0000000000000000e+00  0.0000000000000000e+00 5.5622836002139409e-02 0.0000000000000000e+00  0.0000000000000000e+00 5.0892213979347026e-02 0.0000000000000000e+00  0.0000000000000000e+00 4.4669194409650941e-02 0.0000000000000000e+00  0.0000000000000000e+00 3.7586919185807088e-02 0.0000000000000000e+00  0.0000000000000000e+00 3.0244025544579452e-02 0.0000000000000000e+00  0.0000000000000000e+00 2.3131862951012296e-02 0.0000000000000000e+00  0.0000000000000000e+00 1.6577833057326245e-02 0.0000000000000000e+00  0.0000000000000000e+00 1.0770607607668542e-02 0.0000000000000000e+00  0.0000000000000000e+00 5.7698863358762332e-03 0.0000000000000000e+00  0.0000000000000000e+00 1.5600751349966395e-03 0.0000000000000000e+00  0.0000000000000000e+00 -1.9282944354357880e-03 0.0000000000000000e+00  0.0000000000000000e+00 -4.7834454921367375e-03 0.0000000000000000e+00  0.0000000000000000e+00 -7.1020011202789909e-03 0.0000000000000000e+00  0.0000000000000000e+00 -8.9732960132856247e-03 0.0000000000000000e+00  0.0000000000000000e+00 -1.0478153840109066e-02 0.0000000000000000e+00  0.0000000000000000e+00 -1.1687095079696997e-02 0.0000000000000000e+00  0.0000000000000000e+00 -1.2658269805247068e-02 0.0000000000000000e+00  0.0000000000000000e+00 -1.3440707102475717e-02 0.0000000000000000e+00  0.0000000000000000e+00 -1.4074458337285134e-02 0.0000000000000000e+00  0.0000000000000000e+00 -1.4592026307398615e-02 0.0000000000000000e+00  0.0000000000000000e+00 -1.5020024807440462e-02 0.0000000000000000e+00  0.0000000000000000e+00 -1.5379933546159082e-02 0.0000000000000000e+00  0.0000000000000000e+00 -1.5689748831181613e-02 0.0000000000000000e+00  0.0000000000000000e+00 -1.5964221271407713e-02 0.0000000000000000e+00  0.0000000000000000e+00 -1.6215455097488157e-02 0.0000000000000000e+00  0.0000000000000000e+00 -1.6454001980307692e-02 0.0000000000000000e+00  0.0000000000000000e+00 -1.6689451143241919e-02 0.0000000000000000e+00  0.0000000000000000e+00 -1.6929980084692629e-02 0.0000000000000000e+00  0.0000000000000000e+00 -1.7183482687120784e-02 0.0000000000000000e+00  0.0000000000000000e+00 -1.7458272396694671e-02 0.0000000000000000e+00  0.0000000000000000e+00 -1.7762972509467571e-02 0.0000000000000000e+00  0.0000000000000000e+00 -1.8107316117363718e-02 0.0000000000000000e+00  0.0000000000000000e+00 -1.8502506656423896e-02 0.0000000000000000e+00  0.0000000000000000e+00 -1.8961564124442193e-02 0.0000000000000000e+00  0.0000000000000000e+00 -1.9498176317929723e-02 0.0000000000000000e+00  0.0000000000000000e+00 -2.0121647145393974e-02 0.0000000000000000e+00  0.0000000000000000e+00 -2.0833117236583182e-02 0.0000000000000000e+00  0.0000000000000000e+00 -2.1615571389732264e-02 0.0000000000000000e+00  8.1585313245915417e-04 -2.2270940408844385e-02 0.0000000000000000e+00  1.5709621752324873e-03 -2.1812579385152582e-02 0.0000000000000000e+00  2.2211971372848374e-03 -2.1163254381898672e-02 0.0000000000000000e+00  2.7475832402051878e-03 -2.0433769917826070e-02 0.0000000000000000e+00  3.1539620923694417e-03 -1.9706874255284869e-02 0.0000000000000000e+00  3.4557192365389012e-03 -1.9025802615687645e-02 0.0000000000000000e+00  3.6746324427277166e-03 -1.8403786560551767e-02 0.0000000000000000e+00  3.8297479775583018e-03 -1.7836948690155879e-02 0.0000000000000000e+00  3.9371251384313390e-03 -1.7314975586012998e-02 0.0000000000000000e+00  4.0088840058272795e-03 -1.6826911585422377e-02 0.0000000000000000e+00  4.0529886600283250e-03 -1.6363217469902661e-02 0.0000000000000000e+00  4.0760643960629471e-03 -1.5916107390907507e-02 0.0000000000000000e+00  4.0823113863684007e-03 -1.5479761526408571e-02 0.0000000000000000e+00  4.0748237035470826e-03 -1.5049826502927494e-02 0.0000000000000000e+00  4.0560684594459053e-03 -1.4623168565469509e-02 0.0000000000000000e+00  4.0275364683230262e-03 -1.4197434350200296e-02 0.0000000000000000e+00  3.9910179682905939e-03 -1.3771024023868013e-02 0.0000000000000000e+00  3.9475166021189726e-03 -1.3342878800785369e-02 0.0000000000000000e+00  3.8980108419383866e-03 -1.2912259606651823e-02 0.0000000000000000e+00  3.8435239145848546e-03 -1.2478870318380171e-02 0.0000000000000000e+00  3.7843705557179825e-03 -1.2042549954633395e-02 0.0000000000000000e+00  3.7215822631289043e-03 -1.1603352477599631e-02 0.0000000000000000e+00  3.6554609722574405e-03 -1.1161453237571515e-02 0.0000000000000000e+00  3.5865168701875588e-03 -1.0717079619155944e-02 0.0000000000000000e+00  3.5152892192291218e-03 -1.0270512998605879e-02 0.0000000000000000e+00  3.4417615927819687e-03 -9.8220543773978892e-03 0.0000000000000000e+00  3.3664911845170875e-03 -9.3719421761349255e-03 0.0000000000000000e+00  3.2896845459639452e-03 -8.9204156018913051e-03 0.0000000000000000e+00  3.2114965659515542e-03 -8.4677063129650031e-03 0.0000000000000000e+00  3.1321669046562297e-03 -8.0139126916211091e-03 0.0000000000000000e+00  3.0518015469080846e-03 -7.5592704839978824e-03 0.0000000000000000e+00  2.9709558066255853e-03 -7.1040826414988109e-03 0.0000000000000000e+00  2.8896021792240855e-03 -6.6492926314251216e-03 0.0000000000000000e+00  2.8087474765789923e-03 -6.1973331470867874e-03 0.0000000000000000e+00  2.7290778091305615e-03 -5.7539697025057223e-03 0.0000000000000000e+00  2.6523485808043587e-03 -5.3313073830733989e-03 0.0000000000000000e+00  2.5811556130861486e-03 -4.9514744943356115e-03 0.0000000000000000e+00  2.5184734157279827e-03 -4.6469016462108194e-03 0.0000000000000000e+00  2.4711262024438331e-03 -4.4548944992235801e-03 0.0000000000000000e+00  2.3409309572397516e-03 -4.4247725106165651e-03 0.0000000000000000e+00  2.0840853558734013e-03 -4.4766829868186017e-03 0.0000000000000000e+00  1.7255392193040835e-03 -4.5483151858196381e-03 0.0000000000000000e+00  1.3097502909243696e-03 -4.6348217264587975e-03 0.0000000000000000e+00  8.6889418473829643e-04 -4.7328686612557423e-03 0.0000000000000000e+00  4.2284212759675390e-04 -4.8396603473393361e-03 0.0000000000000000e+00  -1.8321740117927526e-05 -4.9537041264560312e-03 0.0000000000000000e+00  -4.5009696671901022e-04 -5.0731627741963372e-03 0.0000000000000000e+00  -8.7036809469290049e-04 -5.1973113094852816e-03 0.0000000000000000e+00  -1.2780255193418862e-03 -5.3251004009513912e-03 0.0000000000000000e+00  -1.6719798785293396e-03 -5.4564471094928381e-03 0.0000000000000000e+00  -2.0512110926390365e-03 -5.5903484392489647e-03 0.0000000000000000e+00  -2.4143269926497216e-03 -5.7264727593354277e-03 0.0000000000000000e+00  -2.7598171382033397e-03 -5.8641958044836455e-03 0.0000000000000000e+00  -3.0858640994486587e-03 -6.0032806610320977e-03 0.0000000000000000e+00  -3.3906401892770492e-03 -6.1427854469134589e-03 0.0000000000000000e+00  -3.6719823541977955e-03 -6.2822323488826923e-03 0.0000000000000000e+00  -3.9276641809247500e-03 -6.4209189336376796e-03 0.0000000000000000e+00  -4.1552426888223038e-03 -6.5581245222984183e-03 0.0000000000000000e+00  -4.3522549310775196e-03 -6.6930350545476918e-03 0.0000000000000000e+00  -4.5161056703384803e-03 -6.8250419315440307e-03 0.0000000000000000e+00  -4.6441140132377386e-03 -6.9532320067926343e-03 0.0000000000000000e+00  -4.7338509719378587e-03 -7.0767888487011802e-03 0.0000000000000000e+00  -4.7826645355212166e-03 -7.1951268407836923e-03 0.0000000000000000e+00  -4.7883436177159309e-03 -7.3075384514060321e-03 0.0000000000000000e+00  -4.7488515515036276e-03 -7.4133422192006818e-03 0.0000000000000000e+00  -4.6624400706132526e-03 -7.5120765693224272e-03 0.0000000000000000e+00  -4.5280804058454470e-03 -7.6032925204348525e-03 0.0000000000000000e+00  -4.3447416072809296e-03 -7.6868329355791899e-03 0.0000000000000000e+00  -4.1127313400924972e-03 -7.7624226164370366e-03 0.0000000000000000e+00  -3.8327725813643745e-03 -7.8301234312703940e-03 0.0000000000000000e+00  -3.5063207801733481e-03 -7.8900546931062413e-03 0.0000000000000000e+00  -3.1359944306260604e-03 -7.9423746521865672e-03 0.0000000000000000e+00  -2.7249549256162359e-03 -7.9872877410295251e-03 0.0000000000000000e+00  -2.2776246447867333e-03 -8.0252668317563336e-03 0.0000000000000000e+00  -1.7990840832805813e-03 -8.0565019937553217e-03 0.0000000000000000e+00  -1.2951787767162873e-03 -8.0813515664032495e-03 0.0000000000000000e+00  -7.7251012749219162e-04 -8.1000156069985976e-03 0.0000000000000000e+00  -2.3803695912393206e-04 -8.1125308094829908e-03 0.0000000000000000e+00  3.0085448380666447e-04 -8.1190341973174825e-03 0.0000000000000000e+00  8.3668182597505737e-04 -8.1193543572115039e-03 0.0000000000000000e+00  1.3620003516317334e-03 -8.1133201096652511e-03 0.0000000000000000e+00  1.8696988286750677e-03 -8.1005297728080367e-03 0.0000000000000000e+00  2.3531806787640505e-03 -8.0808981507733326e-03 0.0000000000000000e+00  2.8060918836830518e-03 -8.0533556538389117e-03 0.0000000000000000e+00  3.2236629908675755e-03 -8.0181961933015033e-03 0.0000000000000000e+00  3.6009283703888457e-03 -7.9745988773751528e-03 0.0000000000000000e+00  3.9346471981747686e-03 -7.9224260969302986e-03 0.0000000000000000e+00  4.2220659354612125e-03 -7.8613435534144582e-03 0.0000000000000000e+00  4.4615869458534086e-03 -7.7914062863636783e-03 0.0000000000000000e+00  4.6521395113359237e-03 -7.7126129643478670e-03 0.0000000000000000e+00  4.7938318639886143e-03 -7.6251394150443881e-03 0.0000000000000000e+00  4.8871437553137534e-03 -7.5292711629799079e-03 0.0000000000000000e+00  4.9333674515585017e-03 -7.4256285776851750e-03 0.0000000000000000e+00  4.9342440156691153e-03 -7.3147532305152894e-03 0.0000000000000000e+00  4.8916440345825552e-03 -7.1971970382630054e-03 0.0000000000000000e+00  4.8081155714375561e-03 -7.0739244375286232e-03 0.0000000000000000e+00  4.6861283189999457e-03 -6.9456310610048087e-03 0.0000000000000000e+00  4.5283482325023236e-03 -6.8131574641665752e-03 0.0000000000000000e+00  4.3374660023453773e-03 -6.6773894867252085e-03 0.0000000000000000e+00  4.1160919601445642e-03 -6.5391143015188970e-03 0.0000000000000000e+00  3.8668267868419096e-03 -6.3991089439653752e-03 0.0000000000000000e+00  3.5921621307088772e-03 -6.2582073909389019e-03 0.0000000000000000e+00  3.2944771891760109e-03 -6.1169884660221378e-03 0.0000000000000000e+00  2.9758670060102731e-03 -5.9762853989292087e-03 0.0000000000000000e+00  2.6383927210968188e-03 -5.8366138068263965e-03 0.0000000000000000e+00  2.2838722066577753e-03 -5.6984826420438490e-03 0.0000000000000000e+00  1.9139246863547051e-03 -5.5625004987782233e-03 0.0000000000000000e+00  1.5300391452553208e-03 -5.4290199808582438e-03 0.0000000000000000e+00  1.1333989015319820e-03 -5.2986251371258822e-03 0.0000000000000000e+00  7.2511894307711105e-04 -5.1716561261042062e-03 0.0000000000000000e+00  3.0616348825749555e-04 -5.0488121926518187e-03 0.0000000000000000e+00  -1.2222287664388469e-04 -4.9306853434376617e-03 0.0000000000000000e+00  -5.5781899789596222e-04 -4.8182664802389787e-03 0.0000000000000000e+00  -9.9559468242012262e-04 -4.7128640078394146e-03 0.0000000000000000e+00  -1.4248706949427823e-03 -4.6163588700276759e-03 0.0000000000000000e+00  -1.8253195761766317e-03 -4.5310548046465756e-03 0.0000000000000000e+00  -2.1654847612448719e-03 -4.4608869250980562e-03 0.0000000000000000e+00  -2.4053000014640025e-03 -4.4096063651898193e-03 0.0000000000000000e+00  -1.0548445125361860e-02 -1.3115339867549768e-02 0.0000000000000000e+00  4.8248947004818190e-03 -1.6011978101557047e-02 0.0000000000000000e+00  -2.2831062089844166e-03 -1.2611028750610764e-02 0.0000000000000000e+00  9.9942787076660487e-04 -1.0512746701612270e-02 0.0000000000000000e+00  -8.8214608168649589e-04 -1.5653669267185834e-02 0.0000000000000000e+00  1.7694189301257542e-03 -5.7694265550962395e-02 0.0000000000000000e+00  4.6787447642186010e-03 -6.9552023540701740e-03 0.0000000000000000e+00  1.2965855997432185e-04 -2.1189446359996741e-02 0.0000000000000000e+00  1.1594825019227270e-03 -1.6073302430203627e-02 0.0000000000000000e+00  -5.2043357964696706e-03 -9.1624977353179839e-03 0.0000000000000000e+00  -2.2988125703352230e-03 -1.8768391416676692e-02 0.0000000000000000e+00  4.2634134881832297e-03 -9.5173117057600187e-03 0.0000000000000000e+00  2.7309783503537424e-02 -6.7057643913321571e-02 0.0000000000000000e+00  -1.7187562141147487e-04 -8.7762618001176410e-03 0.0000000000000000e+00  -2.3969492254136151e-03 -6.4455596056740552e-03 0.0000000000000000e+00  1.1724720510301993e-03 -1.3104521864623554e-02 0.0000000000000000e+00  -3.2964254997230463e-03 -8.7638829988023262e-03 0.0000000000000000e+00  -1.4900572896211046e-03 -1.2949251135827374e-02 0.0000000000000000e+00  -6.0793778015153718e-03 -1.5280523526598668e-02 0.0000000000000000e+00  -6.4336548052814713e-04 -7.5846519837139553e-03 0.0000000000000000e+00  -2.0548793569653305e-03 -1.6773202042921889e-02 0.0000000000000000e+00  5.7553445377342416e-03 -1.0005114111616607e-02 0.0000000000000000e+00  1.4795315673102501e-03 -1.4128903897584965e-02 0.0000000000000000e+00  -1.5895140663868473e-02 -2.2116933794108142e-02 0.0000000000000000e+00  4.5968491267093436e-03 -7.9817650162521316e-03 0.0000000000000000e+00  1.4992887515469628e-03 -1.6796293372787464e-02 0.0000000000000000e+00  9.9570952678575721e-03 -1.8794814497462186e-02 0.0000000000000000e+00  1.3035144125957117e-02 -2.0629510284501194e-02 0.0000000000000000e+00  -1.0070042308077951e-03 -1.6150483060772935e-02 0.0000000000000000e+00  -1.3107740975675951e-03 -1.6242137214658971e-02 0.0000000000000000e+00  2.6476445989178066e-03 -8.0588296138225241e-03 0.0000000000000000e+00  -2.3302696688540431e-02 -1.8253809617162012e-02 0.0000000000000000e+00  6.4147680960029551e-03 -1.0823163719767489e-02 0.0000000000000000e+00  1.9566599180028013e-03 -1.7212205958982867e-02 0.0000000000000000e+00  1.5114422846385777e-03 -6.8450802820049514e-03 0.0000000000000000e+00  -6.0610792745808282e-03 -3.0200749905427773e-02 0.0000000000000000e+00  8.2145698938693515e-04 -2.5813796250969561e-02 0.0000000000000000e+00  -1.7741717940413205e-03 -1.0244416020815264e-02 0.0000000000000000e+00  -2.6280482359593662e-03 -1.4958655975229274e-02 0.0000000000000000e+00  -4