<?xml version="1.0"?>
<VTKFile type="UnstructuredGrid"  version="0.1"  >
<UnstructuredGrid>
<Piece  NumberOfPoints="4372" NumberOfCells="8502">
<Points>
<DataArray  type="Float64"  NumberOfComponents="3"  format="ascii">-2 2 0  0 2 0  0 -2 0  -2 -2 0  -1.949999999999792 2 0  -1.899999999999584 2 0  -1.849999999999375 2 0  -1.799999999999167 2 0  -1.749999999999002 2 0  -1.699999999999306 2 0  -1.649999999999653 2 0  -1.6 2 0  -1.550000000000346 2 0  -1.500000000000693 2 0  -1.45000000000104 2 0  -1.400000000001387 2 0  -1.350000000001733 2 0  -1.30000000000208 2 0  -1.250000000002427 2 0  -1.200000000002774 2 0  -1.150000000003121 2 0  -1.100000000003467 2 0  -1.050000000003814 2 0  -1.000000000004117 2 0  -0.9500000000039528 2 0  -0.9000000000037447 2 0  -0.8500000000035368 2 0  -0.8000000000033287 2 0  -0.7500000000031206 2 0  -0.7000000000029127 2 0  -0.6500000000027044 2 0  -0.6000000000024965 2 0  -0.5500000000022884 2 0  -0.5000000000020806 2 0  -0.4500000000018725 2 0  -0.4000000000016644 2 0  -0.3500000000014563 2 0  -0.3000000000012482 2 0  -0.2500000000010403 2 0  -0.200000000000832 2 0  -0.1500000000006243 2 0  -0.100000000000416 2 0  -0.0500000000002081 2 0  0 1.950000000000139 0  0 1.900000000000277 0  0 1.850000000000416 0  0 1.800000000000555 0  0 1.750000000000693 0  0 1.700000000000832 0  0 1.650000000000971 0  0 1.60000000000111 0  0 1.550000000001248 0  0 1.500000000001387 0  0 1.450000000001526 0  0 1.400000000001664 0  0 1.350000000001803 0  0 1.300000000001942 0  0 1.250000000002081 0  0 1.200000000002219 0  0 1.150000000002358 0  0 1.100000000002496 0  0 1.050000000002635 0  0 1.000000000002774 0  0 0.9500000000029125 0  0 0.9000000000030515 0  0 0.8500000000031902 0  0 0.8000000000033287 0  0 0.7500000000034674 0  0 0.7000000000036062 0  0 0.6500000000037449 0  0 0.6000000000038836 0  0 0.5500000000040224 0  0 0.5000000000041611 0  0 0.4500000000042998 0  0 0.4000000000044384 0  0 0.3500000000045771 0  0 0.3000000000047156 0  0 0.2500000000048543 0  0 0.2000000000049929 0  0 0.1500000000051318 0  0 0.1000000000052705 0  0 0.05000000000540905 0  0 5.504485756091526e-12 0  0 -0.04999999999459082 0  0 -0.09999999999472964 0  0 -0.149999999994868 0  0 -0.1999999999950068 0  0 -0.2499999999951457 0  0 -0.299999999995284 0  0 -0.3499999999954229 0  0 -0.3999999999955617 0  0 -0.4499999999957001 0  0 -0.4999999999958389 0  0 -0.5499999999959777 0  0 -0.5999999999961165 0  0 -0.6499999999962549 0  0 -0.6999999999963937 0  0 -0.7499999999965326 0  0 -0.7999999999966709 0  0 -0.8499999999968098 0  0 -0.8999999999969486 0  0 -0.949999999997087 0  0 -0.9999999999972258 0  0 -1.049999999997365 0  0 -1.099999999997503 0  0 -1.149999999997642 0  0 -1.199999999997781 0  0 -1.249999999997919 0  0 -1.299999999998058 0  0 -1.349999999998198 0  0 -1.399999999998336 0  0 -1.449999999998474 0  0 -1.499999999998613 0  0 -1.549999999998751 0  0 -1.599999999998891 0  0 -1.64999999999903 0  0 -1.699999999999168 0  0 -1.749999999999306 0  0 -1.799999999999445 0  0 -1.849999999999584 0  0 -1.899999999999723 0  0 -1.949999999999862 0  -0.04999999999990573 -2 0  -0.0999999999997993 -2 0  -0.1499999999997056 -2 0  -0.1999999999996293 -2 0  -0.2499999999995475 -2 0  -0.2999999999994072 -2 0  -0.3499999999992615 -2 0  -0.3999999999991157 -2 0  -0.44999999999897 -2 0  -0.4999999999988242 -2 0  -0.5499999999986784 -2 0  -0.5999999999985328 -2 0  -0.649999999998387 -2 0  -0.6999999999982413 -2 0  -0.7499999999980955 -2 0  -0.7999999999979498 -2 0  -0.8499999999978042 -2 0  -0.8999999999976585 -2 0  -0.9499999999975127 -2 0  -0.9999999999973885 -2 0  -1.049999999997498 -2 0  -1.09999999999763 -2 0  -1.149999999997762 -2 0  -1.199999999997894 -2 0  -1.249999999998025 -2 0  -1.299999999998157 -2 0  -1.349999999998289 -2 0  -1.39999999999842 -2 0  -1.449999999998552 -2 0  -1.499999999998683 -2 0  -1.549999999998815 -2 0  -1.599999999998947 -2 0  -1.649999999999078 -2 0  -1.69999999999921 -2 0  -1.749999999999342 -2 0  -1.799999999999474 -2 0  -1.849999999999605 -2 0  -1.899999999999737 -2 0  -1.949999999999869 -2 0  -2 -1.950000000000139 0  -2 -1.900000000000277 0  -2 -1.850000000000416 0  -2 -1.800000000000555 0  -2 -1.750000000000693 0  -2 -1.700000000000832 0  -2 -1.650000000000971 0  -2 -1.60000000000111 0  -2 -1.550000000001248 0  -2 -1.500000000001387 0  -2 -1.450000000001526 0  -2 -1.400000000001664 0  -2 -1.350000000001803 0  -2 -1.300000000001942 0  -2 -1.250000000002081 0  -2 -1.200000000002219 0  -2 -1.150000000002358 0  -2 -1.100000000002496 0  -2 -1.050000000002635 0  -2 -1.000000000002774 0  -2 -0.9500000000029125 0  -2 -0.9000000000030515 0  -2 -0.8500000000031902 0  -2 -0.8000000000033287 0  -2 -0.7500000000034674 0  -2 -0.7000000000036062 0  -2 -0.6500000000037449 0  -2 -0.6000000000038836 0  -2 -0.5500000000040224 0  -2 -0.5000000000041611 0  -2 -0.4500000000042998 0  -2 -0.4000000000044384 0  -2 -0.3500000000045771 0  -2 -0.3000000000047156 0  -2 -0.2500000000048543 0  -2 -0.2000000000049929 0  -2 -0.1500000000051318 0  -2 -0.1000000000052705 0  -2 -0.05000000000540905 0  -2 -5.504485756091526e-12 0  -2 0.04999999999459082 0  -2 0.09999999999472964 0  -2 0.149999999994868 0  -2 0.1999999999950068 0  -2 0.2499999999951457 0  -2 0.299999999995284 0  -2 0.3499999999954229 0  -2 0.3999999999955617 0  -2 0.4499999999957001 0  -2 0.4999999999958389 0  -2 0.5499999999959777 0  -2 0.5999999999961165 0  -2 0.6499999999962549 0  -2 0.6999999999963937 0  -2 0.7499999999965326 0  -2 0.7999999999966709 0  -2 0.8499999999968098 0  -2 0.8999999999969486 0  -2 0.949999999997087 0  -2 0.9999999999972258 0  -2 1.049999999997365 0  -2 1.099999999997503 0  -2 1.149999999997642 0  -2 1.199999999997781 0  -2 1.249999999997919 0  -2 1.299999999998058 0  -2 1.349999999998198 0  -2 1.399999999998336 0  -2 1.449999999998474 0  -2 1.499999999998613 0  -2 1.549999999998751 0  -2 1.599999999998891 0  -2 1.64999999999903 0  -2 1.699999999999168 0  -2 1.749999999999306 0  -2 1.799999999999445 0  -2 1.849999999999584 0  -2 1.899999999999723 0  -2 1.949999999999862 0  -0.9991019297010011 -0.3216894116769606 0  -1.001123860021573 0.7747860510049681 0  -1.157001840564423 -1.161067247012082 0  -1.338027560051535 1.335779534439809 0  -0.6597222222209854 1.340277777778947 0  -0.6585505322915344 0.2210104638722434 0  -1.342670381551713 0.2273264508688188 0  -0.6282204758073073 -0.8120080430170664 0  -0.584236517600881 -1.424312893620663 0  -1.444216308265114 -0.6762220291217811 0  -0.5052068177397626 0.8617966625436217 0  -1.495725541732084 0.8726406067560636 0  -0.5012956875285356 -0.2537377131698332 0  -1.505964779037762 -1.506864731248248 0  -1.533439101629034 -0.2141932377592857 0  -0.9980909254944228 -1.563025322244478 0  -1.573871097078973 -1.076090339205781 0  -0.9938363905916023 1.574658399668859 0  -1.034823301857025 -0.7463046737786232 0  -1.613643420611705 1.613643420611667 0  -0.3789826634893113 1.622833641383097 0  -0.9969623469406674 0.06224895986291776 0  -0.9977570821219073 1.152964911765466 0  -0.3827586671415756 0.4981078379584384 0  -1.617241332858342 0.4981078379584687 0  -0.3735162279179589 -1.10055932464888 0  -0.9514697352838486 0.4195344991084976 0  -0.3671724871528862 -0.5890291676826473 0  -0.8024708669961921 -1.130631989953667 0  -0.3498086031259764 1.176326426441 0  -1.654591699695181 1.175475929606857 0  -0.3418462529951587 0.05839036814553086 0  -1.276352049535552 0.5646214960700082 0  -0.3455726757630372 -1.654274000872155 0  -1.662000930981631 0.09800841401402562 0  -0.7326605900058469 -0.5029780286614124 0  -0.6815317218188973 0.6015493889244842 0  -1.294915051768271 1.68349586060536 0  -0.6978609120161386 1.682418596511037 0  -1.69042813419972 -0.4820149800903958 0  -0.7177378365368432 -1.691938564923942 0  -1.295041566734205 -0.3964989221993158 0  -1.257425593209587 -1.693594420665469 0  -1.246383246782414 -0.1148360514526407 0  -0.7362449271051545 -0.05964032805167522 0  -1.707983706106591 -0.8099422821034401 0  -0.7716224277305496 0.9720234774828133 0  -1.275827556233888 1.059370830779667 0  -1.709731219610966 -1.713515019749574 0  -0.283604077223767 -1.378462113197051 0  -1.331628086330126 -0.9256871504417986 0  -1.718803648671523 -1.313287096736098 0  -1.237157326776588 -1.417624750871973 0  -0.2754377852160807 -0.8405670548436512 0  -0.2604914310470714 0.745077019249353 0  -1.729633983752603 0.7365041208839631 0  -0.2591591556650803 -0.3445128723686334 0  -0.2497705497594995 0.2862378673199174 0  -0.2571319926197782 1.401471300128245 0  -1.750457518478978 1.404891698644917 0  -0.8313391195977098 -1.383947161511035 0  -1.24247470005791 0.8083576983762071 0  -1.75762809210058 -0.121394575294928 0  -1.436009639427774 -1.277692839795198 0  -0.9951285024698884 -0.9801850598617781 0  -0.5860531098993602 1.102916873865959 0  -1.107154037528234 1.367740498542844 0  -1.765353655027761 0.3139359895551974 0  -0.239693234576285 0.9675382248711792 0  -1.762311524625569 0.9715314837693784 0  -1.453060458314344 0.01668426334404738 0  -1.118216683883963 0.2510494134873997 0  -1.487314750788142 -1.768895281943666 0  -0.775695807447912 -0.2851187916602083 0  -1.775021992875828 1.773058151300929 0  -0.2244440016626344 1.771853493176412 0  -0.8797519944267721 1.389822301404418 0  -1.220958717521525 -0.6178523500889427 0  -0.59343770640056 -1.180817576357191 0  -0.9262618789157869 -1.776942446977449 0  -0.2205428235968764 -0.1260615883490472 0  -1.10972339161439 1.777127575560661 0  -0.9394997616645768 -0.5365790009321401 0  -0.812081892264416 -0.7153463049796221 0  -1.783917055200667 -1.008716696077253 0  -0.515263853692324 -1.788606832309386 0  -0.8883686379713935 1.780240085569055 0  -1.545545177082075 0.2916466799431231 0  -1.490071498349099 1.777107893879804 0  -0.5133806951054479 1.777756514587614 0  -1.042544744196485 -1.335739934857762 0  -0.8641039527440014 0.2249999999994 0  -1.475046450324973 0.6546028915744984 0  -1.529677928948796 1.412892352790367 0  -0.4613578028330296 1.41527900122371 0  -1.790928681625402 -1.
[...]
<PointData  Vectors="f_31-0"> 
<DataArray  type="Float64"  Name="f_31-0"  NumberOfComponents="3" format="ascii">-2.5453995613216071e-03 -4.3036055015493735e-03 0.0000000000000000e+00  0.0000000000000000e+00 -2.2911185780503916e-02 0.0000000000000000e+00  0.0000000000000000e+00 -2.2667029931688461e-02 0.0000000000000000e+00  2.4986250477023282e-03 -4.3152247598591473e-03 0.0000000000000000e+00  -2.5708980743770495e-03 -4.3632264460101069e-03 0.0000000000000000e+00  -2.6203840700247559e-03 -4.5650657268069481e-03 0.0000000000000000e+00  -2.6854384455627955e-03 -4.8799909931813443e-03 0.0000000000000000e+00  -2.7590489955249243e-03 -5.2656883875278173e-03 0.0000000000000000e+00  -2.8382487670131945e-03 -5.6885959576937935e-03 0.0000000000000000e+00  -2.9201115497847004e-03 -6.1279995793033495e-03 0.0000000000000000e+00  -3.0032860928079839e-03 -6.5736981162615293e-03 0.0000000000000000e+00  -3.0868053281677176e-03 -7.0211442572821903e-03 0.0000000000000000e+00  -3.1700657806494545e-03 -7.4686448090210567e-03 0.0000000000000000e+00  -3.2526360553402863e-03 -7.9155343447707780e-03 0.0000000000000000e+00  -3.3343343224200932e-03 -8.3615554526331980e-03 0.0000000000000000e+00  -3.4148024535095470e-03 -8.8065112441393072e-03 0.0000000000000000e+00  -3.4938979610460888e-03 -9.2502450003105405e-03 0.0000000000000000e+00  -3.5714016087547654e-03 -9.6925665041708662e-03 0.0000000000000000e+00  -3.6468866070550189e-03 -1.0133223672575341e-02 0.0000000000000000e+00  -3.7201861752361306e-03 -1.0571955611234333e-02 0.0000000000000000e+00  -3.7909973137570329e-03 -1.1008532784364807e-02 0.0000000000000000e+00  -3.8587376554636032e-03 -1.1442639111029249e-02 0.0000000000000000e+00  -3.9230766729288959e-03 -1.1874116215252932e-02 0.0000000000000000e+00  -3.9835008433126012e-03 -1.2302788965561187e-02 0.0000000000000000e+00  -4.0394102187675113e-03 -1.2728660518289414e-02 0.0000000000000000e+00  -4.0901946824837320e-03 -1.3151909142851111e-02 0.0000000000000000e+00  -4.1350898150537430e-03 -1.3572899566893329e-02 0.0000000000000000e+00  -4.1731061706758278e-03 -1.3992368800467248e-02 0.0000000000000000e+00  -4.2034594784096154e-03 -1.4411442635175688e-02 0.0000000000000000e+00  -4.2248039255505356e-03 -1.4831797460174644e-02 0.0000000000000000e+00  -4.2356190454680932e-03 -1.5255769432232289e-02 0.0000000000000000e+00  -4.2339703409097762e-03 -1.5686726488781926e-02 0.0000000000000000e+00  -4.2171479752859268e-03 -1.6129314022748621e-02 0.0000000000000000e+00  -4.1812643565813214e-03 -1.6589953759055032e-02 0.0000000000000000e+00  -4.1208032206750062e-03 -1.7077570219183470e-02 0.0000000000000000e+00  -4.0272918850289127e-03 -1.7604342489676524e-02 0.0000000000000000e+00  -3.8882968206765730e-03 -1.8185666437399311e-02 0.0000000000000000e+00  -3.6862840537362296e-03 -1.8839684188176414e-02 0.0000000000000000e+00  -3.3971052281976106e-03 -1.9580996349738557e-02 0.0000000000000000e+00  -2.9924602467449359e-03 -2.0407527910633952e-02 0.0000000000000000e+00  -2.4483624946104710e-03 -2.1279181313344747e-02 0.0000000000000000e+00  -1.7476509447252664e-03 -2.2091941805648187e-02 0.0000000000000000e+00  -9.1474073699030173e-04 -2.2688922502990844e-02 0.0000000000000000e+00  0.0000000000000000e+00 -2.1983935505337667e-02 0.0000000000000000e+00  0.0000000000000000e+00 -2.1096779473606327e-02 0.0000000000000000e+00  0.0000000000000000e+00 -2.0288426885538301e-02 0.0000000000000000e+00  0.0000000000000000e+00 -1.9582011313215558e-02 0.0000000000000000e+00  0.0000000000000000e+00 -1.8979995308691877e-02 0.0000000000000000e+00  0.0000000000000000e+00 -1.8469681610132637e-02 0.0000000000000000e+00  0.0000000000000000e+00 -1.8034317421768805e-02 0.0000000000000000e+00  0.0000000000000000e+00 -1.7657841161304103e-02 0.0000000000000000e+00  0.0000000000000000e+00 -1.7326721057553025e-02 0.0000000000000000e+00  0.0000000000000000e+00 -1.7029919804086982e-02 0.0000000000000000e+00  0.0000000000000000e+00 -1.6757953619630648e-02 0.0000000000000000e+00  0.0000000000000000e+00 -1.6502224915950624e-02 0.0000000000000000e+00  0.0000000000000000e+00 -1.6254751847053665e-02 0.0000000000000000e+00  0.0000000000000000e+00 -1.6007081456402009e-02 0.0000000000000000e+00  0.0000000000000000e+00 -1.5750832661041235e-02 0.0000000000000000e+00  0.0000000000000000e+00 -1.5475882988640105e-02 0.0000000000000000e+00  0.0000000000000000e+00 -1.5171142113870757e-02 0.0000000000000000e+00  0.0000000000000000e+00 -1.4823519451799065e-02 0.0000000000000000e+00  0.0000000000000000e+00 -1.4417038878763423e-02 0.0000000000000000e+00  0.0000000000000000e+00 -1.3932803684320932e-02 0.0000000000000000e+00  0.0000000000000000e+00 -1.3347797943360409e-02 0.0000000000000000e+00  0.0000000000000000e+00 -1.2633426953620686e-02 0.0000000000000000e+00  0.0000000000000000e+00 -1.1755457592224280e-02 0.0000000000000000e+00  0.0000000000000000e+00 -1.0671757796101512e-02 0.0000000000000000e+00  0.0000000000000000e+00 -9.3304225662232138e-03 0.0000000000000000e+00  0.0000000000000000e+00 -7.6725767154263635e-03 0.0000000000000000e+00  0.0000000000000000e+00 -5.6247309810761852e-03 0.0000000000000000e+00  0.0000000000000000e+00 -3.1042077489046777e-03 0.0000000000000000e+00  0.0000000000000000e+00 -2.2395175052162132e-05 0.0000000000000000e+00  0.0000000000000000e+00 3.7154078102472131e-03 0.0000000000000000e+00  0.0000000000000000e+00 8.1954416303663541e-03 0.0000000000000000e+00  0.0000000000000000e+00 1.3471295795464029e-02 0.0000000000000000e+00  0.0000000000000000e+00 1.9547953343771355e-02 0.0000000000000000e+00  0.0000000000000000e+00 2.6341986995076106e-02 0.0000000000000000e+00  0.0000000000000000e+00 3.3634179196487320e-02 0.0000000000000000e+00  0.0000000000000000e+00 4.1054662382633701e-02 0.0000000000000000e+00  0.0000000000000000e+00 4.8069966396525887e-02 0.0000000000000000e+00  0.0000000000000000e+00 5.4054897191691986e-02 0.0000000000000000e+00  0.0000000000000000e+00 5.8343024948606922e-02 0.0000000000000000e+00  0.0000000000000000e+00 6.0412993868107549e-02 0.0000000000000000e+00  0.0000000000000000e+00 5.9985352058257460e-02 0.0000000000000000e+00  0.0000000000000000e+00 5.7102966628536887e-02 0.0000000000000000e+00  0.0000000000000000e+00 5.2128641891942509e-02 0.0000000000000000e+00  0.0000000000000000e+00 4.5642534934574167e-02 0.0000000000000000e+00  0.0000000000000000e+00 3.8313908404246921e-02 0.0000000000000000e+00  0.0000000000000000e+00 3.0763828326353465e-02 0.0000000000000000e+00  0.0000000000000000e+00 2.3493239350492207e-02 0.0000000000000000e+00  0.0000000000000000e+00 1.6826125114265515e-02 0.0000000000000000e+00  0.0000000000000000e+00 1.0942893335844318e-02 0.0000000000000000e+00  0.0000000000000000e+00 5.8930546309228027e-03 0.0000000000000000e+00  0.0000000000000000e+00 1.6525150431871529e-03 0.0000000000000000e+00  0.0000000000000000e+00 -1.8548917725946835e-03 0.0000000000000000e+00  0.0000000000000000e+00 -4.7219803113601041e-03 0.0000000000000000e+00  0.0000000000000000e+00 -7.0482540814868965e-03 0.0000000000000000e+00  0.0000000000000000e+00 -8.9248387474564414e-03 0.0000000000000000e+00  0.0000000000000000e+00 -1.0433632298676429e-02 0.0000000000000000e+00  0.0000000000000000e+00 -1.1645781594122342e-02 0.0000000000000000e+00  0.0000000000000000e+00 -1.2619756197515002e-02 0.0000000000000000e+00  0.0000000000000000e+00 -1.3404810553046619e-02 0.0000000000000000e+00  0.0000000000000000e+00 -1.4041059436811743e-02 0.0000000000000000e+00  0.0000000000000000e+00 -1.4561074015061196e-02 0.0000000000000000e+00  0.0000000000000000e+00 -1.4991487785551615e-02 0.0000000000000000e+00  0.0000000000000000e+00 -1.5353799919841919e-02 0.0000000000000000e+00  0.0000000000000000e+00 -1.5666021030828418e-02 0.0000000000000000e+00  0.0000000000000000e+00 -1.5942920061999533e-02 0.0000000000000000e+00  0.0000000000000000e+00 -1.6196621357257392e-02 0.0000000000000000e+00  0.0000000000000000e+00 -1.6437700305148347e-02 0.0000000000000000e+00  0.0000000000000000e+00 -1.6675803616526891e-02 0.0000000000000000e+00  0.0000000000000000e+00 -1.6919147590833815e-02 0.0000000000000000e+00  0.0000000000000000e+00 -1.7175711835144273e-02 0.0000000000000000e+00  0.0000000000000000e+00 -1.7453928246497909e-02 0.0000000000000000e+00  0.0000000000000000e+00 -1.7762627187612037e-02 0.0000000000000000e+00  0.0000000000000000e+00 -1.8111934997193532e-02 0.0000000000000000e+00  0.0000000000000000e+00 -1.8513842742521273e-02 0.0000000000000000e+00  0.0000000000000000e+00 -1.8982986311620223e-02 0.0000000000000000e+00  0.0000000000000000e+00 -1.9536010829821926e-02 0.0000000000000000e+00  0.0000000000000000e+00 -2.0186369349635341e-02 0.0000000000000000e+00  0.0000000000000000e+00 -2.0939428329253069e-02 0.0000000000000000e+00  0.0000000000000000e+00 -2.1778480181834561e-02 0.0000000000000000e+00  8.8039908775197021e-04 -2.2473109482251428e-02 0.0000000000000000e+00  1.6850998493325956e-03 -2.1948860313846033e-02 0.0000000000000000e+00  2.3626100875300078e-03 -2.1225965923565997e-02 0.0000000000000000e+00  2.8957682921816434e-03 -2.0439310287509119e-02 0.0000000000000000e+00  3.2954625564892144e-03 -1.9678813085485039e-02 0.0000000000000000e+00  3.5842401070060033e-03 -1.8983278084709308e-02 0.0000000000000000e+00  3.7890608568988170e-03 -1.8358279716777413e-02 0.0000000000000000e+00  3.9315742999344499e-03 -1.7793880360350792e-02 0.0000000000000000e+00  4.0287775191734905e-03 -1.7276195249201199e-02 0.0000000000000000e+00  4.0928050394819790e-03 -1.6792575378098459e-02 0.0000000000000000e+00  4.1311670967326269e-03 -1.6332849905269800e-02 0.0000000000000000e+00  4.1501043104951426e-03 -1.5889036479549087e-02 0.0000000000000000e+00  4.1534071749090261e-03 -1.5455381738243099e-02 0.0000000000000000e+00  4.1438380495241517e-03 -1.5027625256057480e-02 0.0000000000000000e+00  4.1236430984161309e-03 -1.4602742274806952e-02 0.0000000000000000e+00  4.0940844662498256e-03 -1.4178455514184635e-02 0.0000000000000000e+00  4.0568796573262665e-03 -1.3753233052106184e-02 0.0000000000000000e+00  4.0129022925623229e-03 -1.3326081316975632e-02 0.0000000000000000e+00  3.9630572404484050e-03 -1.2896295220374001e-02 0.0000000000000000e+00  3.9083516810843755e-03 -1.2463618886569652e-02 0.0000000000000000e+00  3.8489874552845699e-03 -1.2027910883469528e-02 0.0000000000000000e+00  3.7860459150464991e-03 -1.1589243978935487e-02 0.0000000000000000e+00  3.7197653638614569e-03 -1.1147813904330880e-02 0.0000000000000000e+00  3.6506548668756101e-03 -1.0703856854475627e-02 0.0000000000000000e+00  3.5792780145675741e-03 -1.0257660551630339e-02 0.0000000000000000e+00  3.5055479605719097e-03 -9.8095293027208649e-03 0.0000000000000000e+00  3.4300758154278865e-03 -9.3596997048616282e-03 0.0000000000000000e+00  3.3530595083054735e-03 -8.9084063837792729e-03 0.0000000000000000e+00  3.2746418916028827e-03 -8.4558792280071127e-03 0.0000000000000000e+00  3.1950627573630089e-03 -8.0021733616661653e-03 0.0000000000000000e+00  3.1143914516428110e-03 -7.5474680544339338e-03 0.0000000000000000e+00  3.0332120226037596e-03 -7.0918941810003142e-03 0.0000000000000000e+00  2.9513597482055546e-03 -6.6360366178540419e-03 0.0000000000000000e+00  2.8698465899989968e-03 -6.1815841793075432e-03 0.0000000000000000e+00  2.7892028265259130e-03 -5.7330241650088371e-03 0.0000000000000000e+00  2.7111377522453630e-03 -5.3008413022140348e-03 0.0000000000000000e+00  2.6382585045874279e-03 -4.9063613383670606e-03 0.0000000000000000e+00  2.5735588238469153e-03 -4.5839285422318542e-03 0.0000000000000000e+00  2.5244475772329506e-03 -4.3766820957096206e-03 0.0000000000000000e+00  2.3868026220921208e-03 -4.3420559581216801e-03 0.0000000000000000e+00  2.1159866391548383e-03 -4.3961116923608816e-03 0.0000000000000000e+00  1.7428668628990816e-03 -4.4703864828418757e-03 0.0000000000000000e+00  1.3165240836385283e-03 -4.5595764506501206e-03 0.0000000000000000e+00  8.6995740073557448e-04 -4.6601053223307744e-03 0.0000000000000000e+00  4.2166174256153162e-04 -4.7690412514567052e-03 0.0000000000000000e+00  -1.9977798517545599e-05 -4.8850233358253090e-03 0.0000000000000000e+00  -4.5162960758587923e-04 -5.0061829509727542e-03 0.0000000000000000e+00  -8.7176316367603020e-04 -5.1319538357575238e-03 0.0000000000000000e+00  -1.2795114800603126e-03 -5.2613115157343904e-03 0.0000000000000000e+00  -1.6738431610399285e-03 -5.3943627295959980e-03 0.0000000000000000e+00  -2.0537539329975566e-03 -5.5300491145055201e-03 0.0000000000000000e+00  -2.4178337296740901e-03 -5.6681322824066495e-03 0.0000000000000000e+00  -2.7645546511557324e-03 -5.8080050429146057e-03 0.0000000000000000e+00  -3.0920817970456062e-03 -5.9495272435166483e-03 0.0000000000000000e+00  -3.3985861025708501e-03 -6.0917142744053177e-03 0.0000000000000000e+00  -3.6818829560614089e-03 -6.2341453874237025e-03 0.0000000000000000e+00  -3.9397377185872735e-03 -6.3761347257790986e-03 0.0000000000000000e+00  -4.1696857903991604e-03 -6.5169761026869768e-03 0.0000000000000000e+00  -4.3692445229827253e-03 -6.6558597872120456e-03 0.0000000000000000e+00  -4.5357895115346204e-03 -6.7921896388895842e-03 0.0000000000000000e+00  -4.6666032907473447e-03 -6.9250469738738269e-03 0.0000000000000000e+00  -4.7592291899124480e-03 -7.0535772257000907e-03 0.0000000000000000e+00  -4.8109559856323054e-03 -7.1771985203757747e-03 0.0000000000000000e+00  -4.8195297136751280e-03 -7.2951498839603328e-03 0.0000000000000000e+00  -4.7828563615363853e-03 -7.4066980487771513e-03 0.0000000000000000e+00  -4.6991204593532345e-03 -7.5113215150414622e-03 0.0000000000000000e+00  -4.5672431639673427e-03 -7.6084946504287963e-03 0.0000000000000000e+00  -4.3861011386983183e-03 -7.6979794016448031e-03 0.0000000000000000e+00  -4.1559610710855746e-03 -7.7794004109230774e-03 0.0000000000000000e+00  -3.8774792702525635e-03 -7.8527226247451648e-03 0.0000000000000000e+00  -3.5520507734069610e-03 -7.9179616914578105e-03 0.0000000000000000e+00  -3.1822619991578281e-03 -7.9751720125711915e-03 0.0000000000000000e+00  -2.7712202576995887e-03 -8.0244365669955610e-03 0.0000000000000000e+00  -2.3233412776289446e-03 -8.0661662929889921e-03 0.0000000000000000e+00  -1.8436971587587566e-03 -8.1004505324615752e-03 0.0000000000000000e+00  -1.3381488704935585e-03 -8.1275891967638927e-03 0.0000000000000000e+00  -8.1332800719718891e-04 -8.1477389321592316e-03 0.0000000000000000e+00  -2.7622163808381495e-04 -8.1608826682587499e-03 0.0000000000000000e+00  2.6572395801952270e-04 -8.1671817839087477e-03 0.0000000000000000e+00  8.0495727494603125e-04 -8.1664563520931800e-03 0.0000000000000000e+00  1.3339466550270512e-03 -8.1585813504890577e-03 0.0000000000000000e+00  1.8455045856461843e-03 -8.1432040068074325e-03 0.0000000000000000e+00  2.3329581537648650e-03 -8.1203320534419133e-03 0.0000000000000000e+00  2.7898569838588198e-03 -8.0889046582543860e-03 0.0000000000000000e+00  3.2113923179746427e-03 -8.0494044022297144e-03 0.0000000000000000e+00  3.5924936313585149e-03 -8.0010273908131934e-03 0.0000000000000000e+00  3.9298853309334509e-03 -7.9437740970987013e-03 0.0000000000000000e+00  4.2207573986965379e-03 -7.8773868842570600e-03 0.0000000000000000e+00  4.4634837542848688e-03 -7.8020242413452349e-03 0.0000000000000000e+00  4.6569566752775573e-03 -7.7177609308297828e-03 0.0000000000000000e+00  4.8012842747656090e-03 -7.6248507877618252e-03 0.0000000000000000e+00  4.8969306620997707e-03 -7.5236384903637765e-03 0.0000000000000000e+00  4.9451992726470707e-03 -7.4148144226951242e-03 0.0000000000000000e+00  4.9478469838645659e-03 -7.2989539010290833e-03 0.0000000000000000e+00  4.9067389516480866e-03 -7.1766470329492869e-03 0.0000000000000000e+00  4.8244626548685421e-03 -7.0488891990036920e-03 0.0000000000000000e+00  4.7035007493551008e-03 -6.9163834572797513e-03 0.0000000000000000e+00  4.5465436035563413e-03 -6.7799852240955309e-03 0.0000000000000000e+00  4.3563062454392513e-03 -6.6405756545998172e-03 0.0000000000000000e+00  4.1354177326843738e-03 -6.4989514685554845e-03 0.0000000000000000e+00  3.8865037096629061e-03 -6.3558620160787628e-03 0.0000000000000000e+00  3.6120763104553737e-03 -6.2121441960539822e-03 0.0000000000000000e+00  3.3145414794460287e-03 -6.0683299129915902e-03 0.0000000000000000e+00  2.9960066026019925e-03 -5.9252794843484930e-03 0.0000000000000000e+00  2.6585535092125117e-03 -5.7834591483959148e-03 0.0000000000000000e+00  2.3040276608776149e-03 -5.6433461902355075e-03 0.0000000000000000e+00  1.9340621274413442e-03 -5.5055490443804639e-03 0.0000000000000000e+00  1.5501776553393113e-03 -5.3703479759702353e-03 0.0000000000000000e+00  1.1535658866724731e-03 -5.2383268903452651e-03 0.0000000000000000e+00  7.4533998178762150e-04 -5.1097311763238463e-03 0.0000000000000000e+00  3.2638630812498529e-04 -4.9852449620000610e-03 0.0000000000000000e+00  -1.0231973046326582e-04 -4.8653399955840924e-03 0.0000000000000000e+00  -5.3921486768139331e-04 -4.7509404313827780e-03 0.0000000000000000e+00  -9.8052779692295853e-04 -4.6432769904510207e-03 0.0000000000000000e+00  -1.4173048091009875e-03 -4.5442112186807136e-03 0.0000000000000000e+00  -1.8304008584822621e-03 -4.4561030540628240e-03 0.0000000000000000e+00  -2.1870880063422772e-03 -4.3832904586618635e-03 0.0000000000000000e+00  -2.4421637261878675e-03 -4.3298143038555444e-03 0.0000000000000000e+00  -1.0801650259019789e-02 -1.3014307390112379e-02 0.0000000000000000e+00  4.8932983281074916e-03 -1.6006630230742541e-02 0.0000000000000000e+00  -2.2673753073284507e-03 -1.2609879981867944e-02 0.0000000000000000e+00  1.0173825490136126e-03 -1.0513615948329917e-02 0.0000000000000000e+00  -8.6886722228669171e-04 -1.5673063701750818e-02 0.0000000000000000e+00  2.5963504435740485e-03 -5.8882346685608426e-02 0.0000000000000000e+00  4.6464472393718849e-03 -6.8600428619549651e-03 0.0000000000000000e+00  1.5011011565344451e-04 -2.1155576246058662e-02 0.0000000000000000e+00  1.1768647875278026e-03 -1.6059833629050113e-02 0.0000000000000000e+00  -5.2186447512639145e-03 -9.1789924361093955e-03 0.0000000000000000e+00  -2.2914734433245494e-03 -1.8834114498755543e-02 0.0000000000000000e+00  4.2794025313668532e-03 -9.5032809204831665e-03 0.0000000000000000e+00  2.8774196107993564e-02 -6.9068451549361740e-02 0.0000000000000000e+00  -1.6395260073492755e-04 -8.7705075359965270e-03 0.0000000000000000e+00  -2.4523642025816861e-03 -6.4387573243517918e-03 0.0000000000000000e+00  1.1882429109008285e-03 -1.3093479703871773e-02 0.0000000000000000e+00  -3.2941941559205376e-03 -8.7664707138321810e-03 0.0000000000000000e+00  -1.4762901063064035e-03 -1.2957197238609729e-02 0.0000000000000000e+00  -6.0656930468741717e-03 -1.5294960793148009e-02 0.0000000000000000e+00  -6.2996790382786340e-04 -7.5834588849414087e-03 0.0000000000000000e+00  -2.0532033542294582e-03 -1.6788425438578253e-02 0.0000000000000000e+00  5.6739050910981611e-03 -9.2931800006500406e-03 0.0000000000000000e+00  1.5073039888095147e-03 -1.4138429199400240e-02 0.0000000000000000e+00  -1.6183190484818449e-02 -2.2339626464062724e-02 0.0000000000000000e+00  4.5887357717222486e-03 -7.9545767776101148e-03 0.0000000000000000e+00  1.5098664401260705e-03 -1.6777302886615764e-02 0.0000000000000000e+00  1.0179718286477922e-02 -1.8640967087258351e-02 0.0000000000000000e+00  1.3044694232180520e-02 -2.0614813704802608e-02 0.0000000000000000e+00  -9.8515212651700433e-04 -1.6137665464607338e-02 0.0000000000000000e+00  -1.3099340412990278e-03 -1.6269826234375815e-02 0.0000000000000000e+00  2.6619788888658054e-03 -8.0554829196657907e-03 0.0000000000000000e+00  -2.5259216106556806e-02 -1.7195839328518193e-02 0.0000000000000000e+00  6.4471532997442569e-03 -1.0765987475023246e-02 0.0000000000000000e+00  1.9782151273758557e-03 -1.7205678418443740e-02 0.0000000000000000e+00  1.4710829664228641e-03 -6.8232616912202995e-03 0.0000000000000000e+00  -6.2088112462940874e-03 -3.0147014131309210e-02 0.0000000000000000e+00  9.5561935148386231e-04 -2.5946134161032575e-02 0.0000000000000000e+00  -1.7635071103557058e-03 -1.0247387792030336e-02 0.0000000000000000e+00  -2.6215395371113320e-03 -1.4969534111573420e-02 0.0000000000000000e+00  -4