<?xml version="1.0"?>
<VTKFile type="UnstructuredGrid"  version="0.1"  >
<UnstructuredGrid>
<Piece  NumberOfPoints="4372" NumberOfCells="8502">
<Points>
<DataArray  type="Float64"  NumberOfComponents="3"  format="ascii">-2 2 0  0 2 0  0 -2 0  -2 -2 0  -1.949999999999792 2 0  -1.899999999999584 2 0  -1.849999999999375 2 0  -1.799999999999167 2 0  -1.749999999999002 2 0  -1.699999999999306 2 0  -1.649999999999653 2 0  -1.6 2 0  -1.550000000000346 2 0  -1.500000000000693 2 0  -1.45000000000104 2 0  -1.400000000001387 2 0  -1.350000000001733 2 0  -1.30000000000208 2 0  -1.250000000002427 2 0  -1.200000000002774 2 0  -1.150000000003121 2 0  -1.100000000003467 2 0  -1.050000000003814 2 0  -1.000000000004117 2 0  -0.9500000000039528 2 0  -0.9000000000037447 2 0  -0.8500000000035368 2 0  -0.8000000000033287 2 0  -0.7500000000031206 2 0  -0.7000000000029127 2 0  -0.6500000000027044 2 0  -0.6000000000024965 2 0  -0.5500000000022884 2 0  -0.5000000000020806 2 0  -0.4500000000018725 2 0  -0.4000000000016644 2 0  -0.3500000000014563 2 0  -0.3000000000012482 2 0  -0.2500000000010403 2 0  -0.200000000000832 2 0  -0.1500000000006243 2 0  -0.100000000000416 2 0  -0.0500000000002081 2 0  0 1.950000000000139 0  0 1.900000000000277 0  0 1.850000000000416 0  0 1.800000000000555 0  0 1.750000000000693 0  0 1.700000000000832 0  0 1.650000000000971 0  0 1.60000000000111 0  0 1.550000000001248 0  0 1.500000000001387 0  0 1.450000000001526 0  0 1.400000000001664 0  0 1.350000000001803 0  0 1.300000000001942 0  0 1.250000000002081 0  0 1.200000000002219 0  0 1.150000000002358 0  0 1.100000000002496 0  0 1.050000000002635 0  0 1.000000000002774 0  0 0.9500000000029125 0  0 0.9000000000030515 0  0 0.8500000000031902 0  0 0.8000000000033287 0  0 0.7500000000034674 0  0 0.7000000000036062 0  0 0.6500000000037449 0  0 0.6000000000038836 0  0 0.5500000000040224 0  0 0.5000000000041611 0  0 0.4500000000042998 0  0 0.4000000000044384 0  0 0.3500000000045771 0  0 0.3000000000047156 0  0 0.2500000000048543 0  0 0.2000000000049929 0  0 0.1500000000051318 0  0 0.1000000000052705 0  0 0.05000000000540905 0  0 5.504485756091526e-12 0  0 -0.04999999999459082 0  0 -0.09999999999472964 0  0 -0.149999999994868 0  0 -0.1999999999950068 0  0 -0.2499999999951457 0  0 -0.299999999995284 0  0 -0.3499999999954229 0  0 -0.3999999999955617 0  0 -0.4499999999957001 0  0 -0.4999999999958389 0  0 -0.5499999999959777 0  0 -0.5999999999961165 0  0 -0.6499999999962549 0  0 -0.6999999999963937 0  0 -0.7499999999965326 0  0 -0.7999999999966709 0  0 -0.8499999999968098 0  0 -0.8999999999969486 0  0 -0.949999999997087 0  0 -0.9999999999972258 0  0 -1.049999999997365 0  0 -1.099999999997503 0  0 -1.149999999997642 0  0 -1.199999999997781 0  0 -1.249999999997919 0  0 -1.299999999998058 0  0 -1.349999999998198 0  0 -1.399999999998336 0  0 -1.449999999998474 0  0 -1.499999999998613 0  0 -1.549999999998751 0  0 -1.599999999998891 0  0 -1.64999999999903 0  0 -1.699999999999168 0  0 -1.749999999999306 0  0 -1.799999999999445 0  0 -1.849999999999584 0  0 -1.899999999999723 0  0 -1.949999999999862 0  -0.04999999999990573 -2 0  -0.0999999999997993 -2 0  -0.1499999999997056 -2 0  -0.1999999999996293 -2 0  -0.2499999999995475 -2 0  -0.2999999999994072 -2 0  -0.3499999999992615 -2 0  -0.3999999999991157 -2 0  -0.44999999999897 -2 0  -0.4999999999988242 -2 0  -0.5499999999986784 -2 0  -0.5999999999985328 -2 0  -0.649999999998387 -2 0  -0.6999999999982413 -2 0  -0.7499999999980955 -2 0  -0.7999999999979498 -2 0  -0.8499999999978042 -2 0  -0.8999999999976585 -2 0  -0.9499999999975127 -2 0  -0.9999999999973885 -2 0  -1.049999999997498 -2 0  -1.09999999999763 -2 0  -1.149999999997762 -2 0  -1.199999999997894 -2 0  -1.249999999998025 -2 0  -1.299999999998157 -2 0  -1.349999999998289 -2 0  -1.39999999999842 -2 0  -1.449999999998552 -2 0  -1.499999999998683 -2 0  -1.549999999998815 -2 0  -1.599999999998947 -2 0  -1.649999999999078 -2 0  -1.69999999999921 -2 0  -1.749999999999342 -2 0  -1.799999999999474 -2 0  -1.849999999999605 -2 0  -1.899999999999737 -2 0  -1.949999999999869 -2 0  -2 -1.950000000000139 0  -2 -1.900000000000277 0  -2 -1.850000000000416 0  -2 -1.800000000000555 0  -2 -1.750000000000693 0  -2 -1.700000000000832 0  -2 -1.650000000000971 0  -2 -1.60000000000111 0  -2 -1.550000000001248 0  -2 -1.500000000001387 0  -2 -1.450000000001526 0  -2 -1.400000000001664 0  -2 -1.350000000001803 0  -2 -1.300000000001942 0  -2 -1.250000000002081 0  -2 -1.200000000002219 0  -2 -1.150000000002358 0  -2 -1.100000000002496 0  -2 -1.050000000002635 0  -2 -1.000000000002774 0  -2 -0.9500000000029125 0  -2 -0.9000000000030515 0  -2 -0.8500000000031902 0  -2 -0.8000000000033287 0  -2 -0.7500000000034674 0  -2 -0.7000000000036062 0  -2 -0.6500000000037449 0  -2 -0.6000000000038836 0  -2 -0.5500000000040224 0  -2 -0.5000000000041611 0  -2 -0.4500000000042998 0  -2 -0.4000000000044384 0  -2 -0.3500000000045771 0  -2 -0.3000000000047156 0  -2 -0.2500000000048543 0  -2 -0.2000000000049929 0  -2 -0.1500000000051318 0  -2 -0.1000000000052705 0  -2 -0.05000000000540905 0  -2 -5.504485756091526e-12 0  -2 0.04999999999459082 0  -2 0.09999999999472964 0  -2 0.149999999994868 0  -2 0.1999999999950068 0  -2 0.2499999999951457 0  -2 0.299999999995284 0  -2 0.3499999999954229 0  -2 0.3999999999955617 0  -2 0.4499999999957001 0  -2 0.4999999999958389 0  -2 0.5499999999959777 0  -2 0.5999999999961165 0  -2 0.6499999999962549 0  -2 0.6999999999963937 0  -2 0.7499999999965326 0  -2 0.7999999999966709 0  -2 0.8499999999968098 0  -2 0.8999999999969486 0  -2 0.949999999997087 0  -2 0.9999999999972258 0  -2 1.049999999997365 0  -2 1.099999999997503 0  -2 1.149999999997642 0  -2 1.199999999997781 0  -2 1.249999999997919 0  -2 1.299999999998058 0  -2 1.349999999998198 0  -2 1.399999999998336 0  -2 1.449999999998474 0  -2 1.499999999998613 0  -2 1.549999999998751 0  -2 1.599999999998891 0  -2 1.64999999999903 0  -2 1.699999999999168 0  -2 1.749999999999306 0  -2 1.799999999999445 0  -2 1.849999999999584 0  -2 1.899999999999723 0  -2 1.949999999999862 0  -0.9991019297010011 -0.3216894116769606 0  -1.001123860021573 0.7747860510049681 0  -1.157001840564423 -1.161067247012082 0  -1.338027560051535 1.335779534439809 0  -0.6597222222209854 1.340277777778947 0  -0.6585505322915344 0.2210104638722434 0  -1.342670381551713 0.2273264508688188 0  -0.6282204758073073 -0.8120080430170664 0  -0.584236517600881 -1.424312893620663 0  -1.444216308265114 -0.6762220291217811 0  -0.5052068177397626 0.8617966625436217 0  -1.495725541732084 0.8726406067560636 0  -0.5012956875285356 -0.2537377131698332 0  -1.505964779037762 -1.506864731248248 0  -1.533439101629034 -0.2141932377592857 0  -0.9980909254944228 -1.563025322244478 0  -1.573871097078973 -1.076090339205781 0  -0.9938363905916023 1.574658399668859 0  -1.034823301857025 -0.7463046737786232 0  -1.613643420611705 1.613643420611667 0  -0.3789826634893113 1.622833641383097 0  -0.9969623469406674 0.06224895986291776 0  -0.9977570821219073 1.152964911765466 0  -0.3827586671415756 0.4981078379584384 0  -1.617241332858342 0.4981078379584687 0  -0.3735162279179589 -1.10055932464888 0  -0.9514697352838486 0.4195344991084976 0  -0.3671724871528862 -0.5890291676826473 0  -0.8024708669961921 -1.130631989953667 0  -0.3498086031259764 1.176326426441 0  -1.654591699695181 1.175475929606857 0  -0.3418462529951587 0.05839036814553086 0  -1.276352049535552 0.5646214960700082 0  -0.3455726757630372 -1.654274000872155 0  -1.662000930981631 0.09800841401402562 0  -0.7326605900058469 -0.5029780286614124 0  -0.6815317218188973 0.6015493889244842 0  -1.294915051768271 1.68349586060536 0  -0.6978609120161386 1.682418596511037 0  -1.69042813419972 -0.4820149800903958 0  -0.7177378365368432 -1.691938564923942 0  -1.295041566734205 -0.3964989221993158 0  -1.257425593209587 -1.693594420665469 0  -1.246383246782414 -0.1148360514526407 0  -0.7362449271051545 -0.05964032805167522 0  -1.707983706106591 -0.8099422821034401 0  -0.7716224277305496 0.9720234774828133 0  -1.275827556233888 1.059370830779667 0  -1.709731219610966 -1.713515019749574 0  -0.283604077223767 -1.378462113197051 0  -1.331628086330126 -0.9256871504417986 0  -1.718803648671523 -1.313287096736098 0  -1.237157326776588 -1.417624750871973 0  -0.2754377852160807 -0.8405670548436512 0  -0.2604914310470714 0.745077019249353 0  -1.729633983752603 0.7365041208839631 0  -0.2591591556650803 -0.3445128723686334 0  -0.2497705497594995 0.2862378673199174 0  -0.2571319926197782 1.401471300128245 0  -1.750457518478978 1.404891698644917 0  -0.8313391195977098 -1.383947161511035 0  -1.24247470005791 0.8083576983762071 0  -1.75762809210058 -0.121394575294928 0  -1.436009639427774 -1.277692839795198 0  -0.9951285024698884 -0.9801850598617781 0  -0.5860531098993602 1.102916873865959 0  -1.107154037528234 1.367740498542844 0  -1.765353655027761 0.3139359895551974 0  -0.239693234576285 0.9675382248711792 0  -1.762311524625569 0.9715314837693784 0  -1.453060458314344 0.01668426334404738 0  -1.118216683883963 0.2510494134873997 0  -1.487314750788142 -1.768895281943666 0  -0.775695807447912 -0.2851187916602083 0  -1.775021992875828 1.773058151300929 0  -0.2244440016626344 1.771853493176412 0  -0.8797519944267721 1.389822301404418 0  -1.220958717521525 -0.6178523500889427 0  -0.59343770640056 -1.180817576357191 0  -0.9262618789157869 -1.776942446977449 0  -0.2205428235968764 -0.1260615883490472 0  -1.10972339161439 1.777127575560661 0  -0.9394997616645768 -0.5365790009321401 0  -0.812081892264416 -0.7153463049796221 0  -1.783917055200667 -1.008716696077253 0  -0.515263853692324 -1.788606832309386 0  -0.8883686379713935 1.780240085569055 0  -1.545545177082075 0.2916466799431231 0  -1.490071498349099 1.777107893879804 0  -0.5133806951054479 1.777756514587614 0  -1.042544744196485 -1.335739934857762 0  -0.8641039527440014 0.2249999999994 0  -1.475046450324973 0.6546028915744984 0  -1.529677928948796 1.412892352790367 0  -0.4613578028330296 1.41527900122371 0  -1.790928681625402 -1.
[...]
<PointData  Vectors="f_31-0"> 
<DataArray  type="Float64"  Name="f_31-0"  NumberOfComponents="3" format="ascii">-2.8752691927633215e-03 -3.7211841788777522e-03 0.0000000000000000e+00  0.0000000000000000e+00 -2.5330146946510250e-02 0.0000000000000000e+00  0.0000000000000000e+00 -2.5155837823810843e-02 0.0000000000000000e+00  2.8684783156985661e-03 -3.7229237037965475e-03 0.0000000000000000e+00  -2.9126128337470369e-03 -3.8790823251846139e-03 0.0000000000000000e+00  -2.9828268442788925e-03 -4.2624489387623312e-03 0.0000000000000000e+00  -3.0609274050565037e-03 -4.7131644552677885e-03 0.0000000000000000e+00  -3.1451377018881827e-03 -5.1756386551422597e-03 0.0000000000000000e+00  -3.2280600535622298e-03 -5.6390370745519692e-03 0.0000000000000000e+00  -3.3115056914193768e-03 -6.0992230995178679e-03 0.0000000000000000e+00  -3.3949583261767982e-03 -6.5571068124452786e-03 0.0000000000000000e+00  -3.4775592766062252e-03 -7.0130036548015345e-03 0.0000000000000000e+00  -3.5599814866534821e-03 -7.4666658799047905e-03 0.0000000000000000e+00  -3.6418164185670417e-03 -7.9188764240257035e-03 0.0000000000000000e+00  -3.7222214442033338e-03 -8.3698493428235113e-03 0.0000000000000000e+00  -3.8015496583411828e-03 -8.8193315035722565e-03 0.0000000000000000e+00  -3.8795616391048373e-03 -9.2672991882021011e-03 0.0000000000000000e+00  -3.9556461440719967e-03 -9.7136639878529652e-03 0.0000000000000000e+00  -4.0297691417176887e-03 -1.0158015844530802e-02 0.0000000000000000e+00  -4.1019687847420579e-03 -1.0600566808965765e-02 0.0000000000000000e+00  -4.1713007552214576e-03 -1.1040757942687204e-02 0.0000000000000000e+00  -4.2375659964520515e-03 -1.1477986294222095e-02 0.0000000000000000e+00  -4.3010337134000293e-03 -1.1912137330605269e-02 0.0000000000000000e+00  -4.3594466683123077e-03 -1.2343634707944419e-02 0.0000000000000000e+00  -4.4149955950655555e-03 -1.2771335577759833e-02 0.0000000000000000e+00  -4.4650761703448477e-03 -1.3195533472649377e-02 0.0000000000000000e+00  -4.5099271885939533e-03 -1.3616669008389773e-02 0.0000000000000000e+00  -4.5494327401361910e-03 -1.4034799629297859e-02 0.0000000000000000e+00  -4.5824862306191871e-03 -1.4451044919055349e-02 0.0000000000000000e+00  -4.6087247003037991e-03 -1.4866780067596105e-02 0.0000000000000000e+00  -4.6274971435162470e-03 -1.5282730753751743e-02 0.0000000000000000e+00  -4.6376629170939406e-03 -1.5701934661553594e-02 0.0000000000000000e+00  -4.6390884236669630e-03 -1.6127883912036539e-02 0.0000000000000000e+00  -4.6294727498813835e-03 -1.6564327875444592e-02 0.0000000000000000e+00  -4.6081944217448321e-03 -1.7017475228846460e-02 0.0000000000000000e+00  -4.5720964912428497e-03 -1.7496143942509371e-02 0.0000000000000000e+00  -4.5172531858336928e-03 -1.8013995492783392e-02 0.0000000000000000e+00  -4.4349545493818660e-03 -1.8588835611019480e-02 0.0000000000000000e+00  -4.3121512420114024e-03 -1.9253576973691643e-02 0.0000000000000000e+00  -4.1159513829938672e-03 -2.0064622103143477e-02 0.0000000000000000e+00  -3.7697508050724398e-03 -2.1110836544751689e-02 0.0000000000000000e+00  -3.1321662332932211e-03 -2.2527249606055587e-02 0.0000000000000000e+00  -1.9291820377911393e-03 -2.4276242081150829e-02 0.0000000000000000e+00  0.0000000000000000e+00 -2.3266430297731761e-02 0.0000000000000000e+00  0.0000000000000000e+00 -2.1706187702273862e-02 0.0000000000000000e+00  0.0000000000000000e+00 -2.0583557947247165e-02 0.0000000000000000e+00  0.0000000000000000e+00 -1.9750511920806641e-02 0.0000000000000000e+00  0.0000000000000000e+00 -1.9096965103349909e-02 0.0000000000000000e+00  0.0000000000000000e+00 -1.8566841411999262e-02 0.0000000000000000e+00  0.0000000000000000e+00 -1.8121917163345162e-02 0.0000000000000000e+00  0.0000000000000000e+00 -1.7740642705805287e-02 0.0000000000000000e+00  0.0000000000000000e+00 -1.7405361272054481e-02 0.0000000000000000e+00  0.0000000000000000e+00 -1.7105766289517110e-02 0.0000000000000000e+00  0.0000000000000000e+00 -1.6830494030811226e-02 0.0000000000000000e+00  0.0000000000000000e+00 -1.6571700648973956e-02 0.0000000000000000e+00  0.0000000000000000e+00 -1.6319513131981111e-02 0.0000000000000000e+00  0.0000000000000000e+00 -1.6066398242945607e-02 0.0000000000000000e+00  0.0000000000000000e+00 -1.5803052411505130e-02 0.0000000000000000e+00  0.0000000000000000e+00 -1.5517981540088968e-02 0.0000000000000000e+00  0.0000000000000000e+00 -1.5201015186145478e-02 0.0000000000000000e+00  0.0000000000000000e+00 -1.4836359142959150e-02 0.0000000000000000e+00  0.0000000000000000e+00 -1.4407531251505470e-02 0.0000000000000000e+00  0.0000000000000000e+00 -1.3893743145838631e-02 0.0000000000000000e+00  0.0000000000000000e+00 -1.3271197001091957e-02 0.0000000000000000e+00  0.0000000000000000e+00 -1.2506880558799165e-02 0.0000000000000000e+00  0.0000000000000000e+00 -1.1563565682389185e-02 0.0000000000000000e+00  0.0000000000000000e+00 -1.0396080253367369e-02 0.0000000000000000e+00  0.0000000000000000e+00 -8.9434834864410614e-03 0.0000000000000000e+00  0.0000000000000000e+00 -7.1412103664147573e-03 0.0000000000000000e+00  0.0000000000000000e+00 -4.9106437702509751e-03 0.0000000000000000e+00  0.0000000000000000e+00 -2.1478580277239107e-03 0.0000000000000000e+00  0.0000000000000000e+00 1.2470469955025872e-03 0.0000000000000000e+00  0.0000000000000000e+00 5.3684184159981376e-03 0.0000000000000000e+00  0.0000000000000000e+00 1.0359703325711515e-02 0.0000000000000000e+00  0.0000000000000000e+00 1.6246177026307981e-02 0.0000000000000000e+00  0.0000000000000000e+00 2.3090185419363109e-02 0.0000000000000000e+00  0.0000000000000000e+00 3.0776065661456603e-02 0.0000000000000000e+00  0.0000000000000000e+00 3.9077987036958695e-02 0.0000000000000000e+00  0.0000000000000000e+00 4.7561355515987787e-02 0.0000000000000000e+00  0.0000000000000000e+00 5.5564602826562594e-02 0.0000000000000000e+00  0.0000000000000000e+00 6.2348400058474335e-02 0.0000000000000000e+00  0.0000000000000000e+00 6.7033425162850685e-02 0.0000000000000000e+00  0.0000000000000000e+00 6.9022008657169329e-02 0.0000000000000000e+00  0.0000000000000000e+00 6.7990681988611537e-02 0.0000000000000000e+00  0.0000000000000000e+00 6.4116896925595385e-02 0.0000000000000000e+00  0.0000000000000000e+00 5.7893104032028478e-02 0.0000000000000000e+00  0.0000000000000000e+00 5.0146574054899487e-02 0.0000000000000000e+00  0.0000000000000000e+00 4.1694227761676084e-02 0.0000000000000000e+00  0.0000000000000000e+00 3.3228346622087714e-02 0.0000000000000000e+00  0.0000000000000000e+00 2.5265606508958378e-02 0.0000000000000000e+00  0.0000000000000000e+00 1.8120575620223792e-02 0.0000000000000000e+00  0.0000000000000000e+00 1.1904062921699526e-02 0.0000000000000000e+00  0.0000000000000000e+00 6.6345484210892577e-03 0.0000000000000000e+00  0.0000000000000000e+00 2.2523409532439306e-03 0.0000000000000000e+00  0.0000000000000000e+00 -1.3509019431061731e-03 0.0000000000000000e+00  0.0000000000000000e+00 -4.2806916900762024e-03 0.0000000000000000e+00  0.0000000000000000e+00 -6.6592199711737396e-03 0.0000000000000000e+00  0.0000000000000000e+00 -8.5713333399954211e-03 0.0000000000000000e+00  0.0000000000000000e+00 -1.0110804357700577e-02 0.0000000000000000e+00  0.0000000000000000e+00 -1.1349220610099960e-02 0.0000000000000000e+00  0.0000000000000000e+00 -1.2344882657697133e-02 0.0000000000000000e+00  0.0000000000000000e+00 -1.3152293880679284e-02 0.0000000000000000e+00  0.0000000000000000e+00 -1.3807997397261264e-02 0.0000000000000000e+00  0.0000000000000000e+00 -1.4346948804164397e-02 0.0000000000000000e+00  0.0000000000000000e+00 -1.4794874420147559e-02 0.0000000000000000e+00  0.0000000000000000e+00 -1.5174842824929343e-02 0.0000000000000000e+00  0.0000000000000000e+00 -1.5503467608789942e-02 0.0000000000000000e+00  0.0000000000000000e+00 -1.5796732612856548e-02 0.0000000000000000e+00  0.0000000000000000e+00 -1.6067177556607842e-02 0.0000000000000000e+00  0.0000000000000000e+00 -1.6323116326706605e-02 0.0000000000000000e+00  0.0000000000000000e+00 -1.6579772173952321e-02 0.0000000000000000e+00  0.0000000000000000e+00 -1.6838599259521907e-02 0.0000000000000000e+00  0.0000000000000000e+00 -1.7115337765016985e-02 0.0000000000000000e+00  0.0000000000000000e+00 -1.7413991098606293e-02 0.0000000000000000e+00  0.0000000000000000e+00 -1.7746758557802198e-02 0.0000000000000000e+00  0.0000000000000000e+00 -1.8124891626109106e-02 0.0000000000000000e+00  0.0000000000000000e+00 -1.8564491759931721e-02 0.0000000000000000e+00  0.0000000000000000e+00 -1.9087194094227902e-02 0.0000000000000000e+00  0.0000000000000000e+00 -1.9728232864081159e-02 0.0000000000000000e+00  0.0000000000000000e+00 -2.0543360316147462e-02 0.0000000000000000e+00  0.0000000000000000e+00 -2.1635665614640236e-02 0.0000000000000000e+00  0.0000000000000000e+00 -2.3147888898024233e-02 0.0000000000000000e+00  1.9017223382712699e-03 -2.4169973941431066e-02 0.0000000000000000e+00  3.0969610636664927e-03 -2.2502328195430694e-02 0.0000000000000000e+00  3.7390871160641564e-03 -2.1125497971062758e-02 0.0000000000000000e+00  4.0863021728113217e-03 -2.0091081379074283e-02 0.0000000000000000e+00  4.2881619397183747e-03 -1.9287040753799282e-02 0.0000000000000000e+00  4.4160489404578207e-03 -1.8625421694256256e-02 0.0000000000000000e+00  4.4997363240480643e-03 -1.8051259392877335e-02 0.0000000000000000e+00  4.5566027920236106e-03 -1.7535024007689127e-02 0.0000000000000000e+00  4.5939602682710913e-03 -1.7056359316898903e-02 0.0000000000000000e+00  4.6162235474235171e-03 -1.6603361430173737e-02 0.0000000000000000e+00  4.6263227268117397e-03 -1.6167633948039651e-02 0.0000000000000000e+00  4.6252798829513036e-03 -1.5741854423338471e-02 0.0000000000000000e+00  4.6154862645420630e-03 -1.5322387515772456e-02 0.0000000000000000e+00  4.5965517870940097e-03 -1.4905546057372245e-02 0.0000000000000000e+00  4.5705065124329826e-03 -1.4490534018007664e-02 0.0000000000000000e+00  4.5375263703323100e-03 -1.4073997255948623e-02 0.0000000000000000e+00  4.4983143950035349e-03 -1.3654734861339045e-02 0.0000000000000000e+00  4.4532350384493165e-03 -1.3233006224962072e-02 0.0000000000000000e+00  4.4032640523772367e-03 -1.2807556546638812e-02 0.0000000000000000e+00  4.3482597720102484e-03 -1.2378940839395799e-02 0.0000000000000000e+00  4.2891241880059399e-03 -1.1946838591922686e-02 0.0000000000000000e+00  4.2260944454698152e-03 -1.1511129483922010e-02 0.0000000000000000e+00  4.1601825964588486e-03 -1.1072413545557292e-02 0.0000000000000000e+00  4.0909795922258012e-03 -1.0630716772386977e-02 0.0000000000000000e+00  4.0190558042359726e-03 -1.0186951846639425e-02 0.0000000000000000e+00  3.9450376955195345e-03 -9.7412089111349586e-03 0.0000000000000000e+00  3.8692931787998154e-03 -9.2928089143460030e-03 0.0000000000000000e+00  3.7912018237202540e-03 -8.8433136872550985e-03 0.0000000000000000e+00  3.7126806677543478e-03 -8.3921077311134712e-03 0.0000000000000000e+00  3.6322831091229555e-03 -7.9395521587548624e-03 0.0000000000000000e+00  3.5506902747794687e-03 -7.4858777994815731e-03 0.0000000000000000e+00  3.4699971104870421e-03 -7.0298986515623793e-03 0.0000000000000000e+00  3.3865370009930054e-03 -6.5723379529873602e-03 0.0000000000000000e+00  3.3038620181732392e-03 -6.1124660000773396e-03 0.0000000000000000e+00  3.2206419596171442e-03 -5.6501596192660361e-03 0.0000000000000000e+00  3.1374169212108238e-03 -5.1842580190785085e-03 0.0000000000000000e+00  3.0540164247124472e-03 -4.7195954793169100e-03 0.0000000000000000e+00  2.9756788876631537e-03 -4.2659973492866600e-03 0.0000000000000000e+00  2.9068878683528331e-03 -3.8809305036486578e-03 0.0000000000000000e+00  2.6573933017064928e-03 -3.7657498569433584e-03 0.0000000000000000e+00  2.2397849424027143e-03 -3.8452547380892631e-03 0.0000000000000000e+00  1.7758212467864538e-03 -3.9435439575338490e-03 0.0000000000000000e+00  1.3124314308097056e-03 -4.0525191131655742e-03 0.0000000000000000e+00  8.5709122391392834e-04 -4.1679145489006844e-03 0.0000000000000000e+00  4.1086248832892706e-04 -4.2883258675899460e-03 0.0000000000000000e+00  -2.6454390186184772e-05 -4.4145960102630151e-03 0.0000000000000000e+00  -4.5531845058180258e-04 -4.5447706750571778e-03 0.0000000000000000e+00  -8.7370055779018734e-04 -4.6795539629712127e-03 0.0000000000000000e+00  -1.2820819376053864e-03 -4.8172095389713634e-03 0.0000000000000000e+00  -1.6779023873324109e-03 -4.9609949047478320e-03 0.0000000000000000e+00  -2.0616325275382495e-03 -5.1074422865977995e-03 0.0000000000000000e+00  -2.4314428219761619e-03 -5.2579107455354756e-03 0.0000000000000000e+00  -2.7842806664987677e-03 -5.4113583240692157e-03 0.0000000000000000e+00  -3.1196190849157920e-03 -5.5690402120936082e-03 0.0000000000000000e+00  -3.4356800012163981e-03 -5.7287297586153044e-03 0.0000000000000000e+00  -3.7294201383925932e-03 -5.8909413304151625e-03 0.0000000000000000e+00  -3.9989965555606265e-03 -6.0548939161290385e-03 0.0000000000000000e+00  -4.2421496054327792e-03 -6.2200320600867293e-03 0.0000000000000000e+00  -4.4557665153757671e-03 -6.3860804276206990e-03 0.0000000000000000e+00  -4.6372072923209044e-03 -6.5517881947603860e-03 0.0000000000000000e+00  -4.7838405294377238e-03 -6.7169721824119205e-03 0.0000000000000000e+00  -4.8928207881450206e-03 -6.8798182366098196e-03 0.0000000000000000e+00  -4.9611992513774149e-03 -7.0406076168858245e-03 0.0000000000000000e+00  -4.9865014090797223e-03 -7.1978252982931954e-03 0.0000000000000000e+00  -4.9664022457450857e-03 -7.3506428154200285e-03 0.0000000000000000e+00  -4.8983200943916467e-03 -7.4979423078662625e-03 0.0000000000000000e+00  -4.7815229974926751e-03 -7.6380351018803276e-03 0.0000000000000000e+00  -4.6137581676735937e-03 -7.7722570820879132e-03 0.0000000000000000e+00  -4.3953113835011968e-03 -7.8972863834580690e-03 0.0000000000000000e+00  -4.1264874354477142e-03 -8.0130539101083992e-03 0.0000000000000000e+00  -3.8075546739368229e-03 -8.1188207878484641e-03 0.0000000000000000e+00  -3.4428289479038932e-03 -8.2141422002177649e-03 0.0000000000000000e+00  -3.0331975072929868e-03 -8.2982035865537939e-03 0.0000000000000000e+00  -2.5833526608512567e-03 -8.3707315568571604e-03 0.0000000000000000e+00  -2.0986401247642954e-03 -8.4302416459456075e-03 0.0000000000000000e+00  -1.5847243022484082e-03 -8.4767624634319652e-03 0.0000000000000000e+00  -1.0496184539149599e-03 -8.5101973013801194e-03 0.0000000000000000e+00  -4.9912105196864428e-04 -8.5313805647893159e-03 0.0000000000000000e+00  5.9210792372235036e-05 -8.5384485052369605e-03 0.0000000000000000e+00  6.1722139520199086e-04 -8.5321172255281817e-03 0.0000000000000000e+00  1.1656048012673908e-03 -8.5111552138704798e-03 0.0000000000000000e+00  1.6981866607704984e-03 -8.4789621244104486e-03 0.0000000000000000e+00  2.2064972078722055e-03 -8.4297781645522579e-03 0.0000000000000000e+00  2.6854572632137134e-03 -8.3740981829711937e-03 0.0000000000000000e+00  3.1293294002310685e-03 -8.2972853941444373e-03 0.0000000000000000e+00  3.5305358556618240e-03 -8.2169829174500372e-03 0.0000000000000000e+00  3.8884382028049613e-03 -8.1204755926878747e-03 0.0000000000000000e+00  4.1985018761763731e-03 -8.0136262710233108e-03 0.0000000000000000e+00  4.4585517183231673e-03 -7.8969942010623639e-03 0.0000000000000000e+00  4.6683136546574258e-03 -7.7717585781523534e-03 0.0000000000000000e+00  4.8273985670255560e-03 -7.6374748913214403e-03 0.0000000000000000e+00  4.9360759240608502e-03 -7.4957736401900250e-03 0.0000000000000000e+00  4.9958056795401844e-03 -7.3480667220950794e-03 0.0000000000000000e+00  5.0086367735863767e-03 -7.1942683327453193e-03 0.0000000000000000e+00  4.9760727816935057e-03 -7.0367204174843871e-03 0.0000000000000000e+00  4.9010551391208464e-03 -6.8753981352638136e-03 0.0000000000000000e+00  4.7861618966133336e-03 -6.7115792691293755e-03 0.0000000000000000e+00  4.6341268650474127e-03 -6.5461253635870492e-03 0.0000000000000000e+00  4.4479174016615313e-03 -6.3799374995957723e-03 0.0000000000000000e+00  4.2302450912320684e-03 -6.2140553728130604e-03 0.0000000000000000e+00  3.9835818150353464e-03 -6.0485383334281445e-03 0.0000000000000000e+00  3.7107739282285948e-03 -5.8846186406436296e-03 0.0000000000000000e+00  3.4145170130509823e-03 -5.7221883161205356e-03 0.0000000000000000e+00  3.0966678866684236e-03 -5.5625669719713356e-03 0.0000000000000000e+00  2.7597875261154738e-03 -5.4058048330372973e-03 0.0000000000000000e+00  2.4052906046004769e-03 -5.2519230407022622e-03 0.0000000000000000e+00  2.0352686022722722e-03 -5.1019154929428682e-03 0.0000000000000000e+00  1.6515402075169773e-03 -4.9557450674233431e-03 0.0000000000000000e+00  1.2551110859973411e-03 -4.8128474765642519e-03 0.0000000000000000e+00  8.4722639841687433e-04 -4.6744528155507788e-03 0.0000000000000000e+00  4.2935515928976939e-04 -4.5404489438145741e-03 0.0000000000000000e+00  1.7837879425790976e-06 -4.4104438999536784e-03 0.0000000000000000e+00  -4.3471069406524223e-04 -4.2853588748007149e-03 0.0000000000000000e+00  -8.7909804078496159e-04 -4.1647614305782774e-03 0.0000000000000000e+00  -1.3332967811005335e-03 -4.0493452876438412e-03 0.0000000000000000e+00  -1.7940275765403785e-03 -3.9407136205195500e-03 0.0000000000000000e+00  -2.2542887469646539e-03 -3.8434142070974879e-03 0.0000000000000000e+00  -2.6694557210421338e-03 -3.7642906755628439e-03 0.0000000000000000e+00  -1.1845028094532896e-02 -1.2952094348141180e-02 0.0000000000000000e+00  5.2766902545130050e-03 -1.5956653060717450e-02 0.0000000000000000e+00  -2.1755058433501314e-03 -1.2604060617316384e-02 0.0000000000000000e+00  1.1144833020043793e-03 -1.0516356101762018e-02 0.0000000000000000e+00  -7.9006445757878047e-04 -1.5785802922759922e-02 0.0000000000000000e+00  1.0725043475526415e-02 -6.3906058654611131e-02 0.0000000000000000e+00  4.4184802372779714e-03 -6.3632536157149349e-03 0.0000000000000000e+00  2.9873866744599143e-04 -2.0945976860933007e-02 0.0000000000000000e+00  1.2735730586600480e-03 -1.5976432981453317e-02 0.0000000000000000e+00  -5.2871652945452362e-03 -9.2842026864331587e-03 0.0000000000000000e+00  -2.2263612306544864e-03 -1.9210913645567308e-02 0.0000000000000000e+00  4.3601899428304548e-03 -9.4185871498311587e-03 0.0000000000000000e+00  3.3978080785603069e-02 -7.8664214663736548e-02 0.0000000000000000e+00  -1.2126449071827593e-04 -8.7399252581154309e-03 0.0000000000000000e+00  -2.7634169459168148e-03 -6.4329471682824883e-03 0.0000000000000000e+00  1.2723127153922258e-03 -1.3029608408017705e-02 0.0000000000000000e+00  -3.2796754956819370e-03 -8.7837905895049220e-03 0.0000000000000000e+00  -1.3988779180589606e-03 -1.3004017476598163e-02 0.0000000000000000e+00  -5.9490020416632624e-03 -1.5387621443451809e-02 0.0000000000000000e+00  -5.5790717496446746e-04 -7.5791792833140624e-03 0.0000000000000000e+00  -2.0404373471657822e-03 -1.6881158100496469e-02 0.0000000000000000e+00  4.7793696459796017e-03 -5.8798262896652114e-03 0.0000000000000000e+00  1.6655196637143221e-03 -1.4187726080787971e-02 0.0000000000000000e+00  -1.7639647334958757e-02 -2.3628423785369647e-02 0.0000000000000000e+00  4.5279924926969048e-03 -7.8029399934481892e-03 0.0000000000000000e+00  1.5708267669755646e-03 -1.6658046477122598e-02 0.0000000000000000e+00  1.1328768123626095e-02 -1.7723147608577360e-02 0.0000000000000000e+00  1.2967066026194438e-02 -2.0412121887148145e-02 0.0000000000000000e+00  -8.5638582222851475e-04 -1.6060855271424802e-02 0.0000000000000000e+00  -1.2971063089853956e-03 -1.6437579704052262e-02 0.0000000000000000e+00  2.7352242766958464e-03 -8.0370159070716103e-03 0.0000000000000000e+00  -4.0153315117907408e-02 -1.9599970804535152e-03 0.0000000000000000e+00  6.6027767596618407e-03 -1.0435712374208657e-02 0.0000000000000000e+00  2.0922144242849698e-03 -1.7153950551752114e-02 0.0000000000000000e+00  1.2308920060994754e-03 -6.7129866555314483e-03 0.0000000000000000e+00  -6.4085501832099158e-03 -2.9908759989136887e-02 0.0000000000000000e+00  1.7621393857421544e-03 -2.6657717699818558e-02 0.0000000000000000e+00  -1.6982108917380982e-03 -1.0265339850942006e-02 0.0000000000000000e+00  -2.5743601151262982e-03 -1.5035682449559379e-02 0.0000000000000000e+00  -4.2