<?xml version="1.0"?>
<VTKFile type="UnstructuredGrid"  version="0.1"  >
<UnstructuredGrid>
<Piece  NumberOfPoints="4372" NumberOfCells="8502">
<Points>
<DataArray  type="Float64"  NumberOfComponents="3"  format="ascii">-2 2 0  0 2 0  0 -2 0  -2 -2 0  -1.949999999999792 2 0  -1.899999999999584 2 0  -1.849999999999375 2 0  -1.799999999999167 2 0  -1.749999999999002 2 0  -1.699999999999306 2 0  -1.649999999999653 2 0  -1.6 2 0  -1.550000000000346 2 0  -1.500000000000693 2 0  -1.45000000000104 2 0  -1.400000000001387 2 0  -1.350000000001733 2 0  -1.30000000000208 2 0  -1.250000000002427 2 0  -1.200000000002774 2 0  -1.150000000003121 2 0  -1.100000000003467 2 0  -1.050000000003814 2 0  -1.000000000004117 2 0  -0.9500000000039528 2 0  -0.9000000000037447 2 0  -0.8500000000035368 2 0  -0.8000000000033287 2 0  -0.7500000000031206 2 0  -0.7000000000029127 2 0  -0.6500000000027044 2 0  -0.6000000000024965 2 0  -0.5500000000022884 2 0  -0.5000000000020806 2 0  -0.4500000000018725 2 0  -0.4000000000016644 2 0  -0.3500000000014563 2 0  -0.3000000000012482 2 0  -0.2500000000010403 2 0  -0.200000000000832 2 0  -0.1500000000006243 2 0  -0.100000000000416 2 0  -0.0500000000002081 2 0  0 1.950000000000139 0  0 1.900000000000277 0  0 1.850000000000416 0  0 1.800000000000555 0  0 1.750000000000693 0  0 1.700000000000832 0  0 1.650000000000971 0  0 1.60000000000111 0  0 1.550000000001248 0  0 1.500000000001387 0  0 1.450000000001526 0  0 1.400000000001664 0  0 1.350000000001803 0  0 1.300000000001942 0  0 1.250000000002081 0  0 1.200000000002219 0  0 1.150000000002358 0  0 1.100000000002496 0  0 1.050000000002635 0  0 1.000000000002774 0  0 0.9500000000029125 0  0 0.9000000000030515 0  0 0.8500000000031902 0  0 0.8000000000033287 0  0 0.7500000000034674 0  0 0.7000000000036062 0  0 0.6500000000037449 0  0 0.6000000000038836 0  0 0.5500000000040224 0  0 0.5000000000041611 0  0 0.4500000000042998 0  0 0.4000000000044384 0  0 0.3500000000045771 0  0 0.3000000000047156 0  0 0.2500000000048543 0  0 0.2000000000049929 0  0 0.1500000000051318 0  0 0.1000000000052705 0  0 0.05000000000540905 0  0 5.504485756091526e-12 0  0 -0.04999999999459082 0  0 -0.09999999999472964 0  0 -0.149999999994868 0  0 -0.1999999999950068 0  0 -0.2499999999951457 0  0 -0.299999999995284 0  0 -0.3499999999954229 0  0 -0.3999999999955617 0  0 -0.4499999999957001 0  0 -0.4999999999958389 0  0 -0.5499999999959777 0  0 -0.5999999999961165 0  0 -0.6499999999962549 0  0 -0.6999999999963937 0  0 -0.7499999999965326 0  0 -0.7999999999966709 0  0 -0.8499999999968098 0  0 -0.8999999999969486 0  0 -0.949999999997087 0  0 -0.9999999999972258 0  0 -1.049999999997365 0  0 -1.099999999997503 0  0 -1.149999999997642 0  0 -1.199999999997781 0  0 -1.249999999997919 0  0 -1.299999999998058 0  0 -1.349999999998198 0  0 -1.399999999998336 0  0 -1.449999999998474 0  0 -1.499999999998613 0  0 -1.549999999998751 0  0 -1.599999999998891 0  0 -1.64999999999903 0  0 -1.699999999999168 0  0 -1.749999999999306 0  0 -1.799999999999445 0  0 -1.849999999999584 0  0 -1.899999999999723 0  0 -1.949999999999862 0  -0.04999999999990573 -2 0  -0.0999999999997993 -2 0  -0.1499999999997056 -2 0  -0.1999999999996293 -2 0  -0.2499999999995475 -2 0  -0.2999999999994072 -2 0  -0.3499999999992615 -2 0  -0.3999999999991157 -2 0  -0.44999999999897 -2 0  -0.4999999999988242 -2 0  -0.5499999999986784 -2 0  -0.5999999999985328 -2 0  -0.649999999998387 -2 0  -0.6999999999982413 -2 0  -0.7499999999980955 -2 0  -0.7999999999979498 -2 0  -0.8499999999978042 -2 0  -0.8999999999976585 -2 0  -0.9499999999975127 -2 0  -0.9999999999973885 -2 0  -1.049999999997498 -2 0  -1.09999999999763 -2 0  -1.149999999997762 -2 0  -1.199999999997894 -2 0  -1.249999999998025 -2 0  -1.299999999998157 -2 0  -1.349999999998289 -2 0  -1.39999999999842 -2 0  -1.449999999998552 -2 0  -1.499999999998683 -2 0  -1.549999999998815 -2 0  -1.599999999998947 -2 0  -1.649999999999078 -2 0  -1.69999999999921 -2 0  -1.749999999999342 -2 0  -1.799999999999474 -2 0  -1.849999999999605 -2 0  -1.899999999999737 -2 0  -1.949999999999869 -2 0  -2 -1.950000000000139 0  -2 -1.900000000000277 0  -2 -1.850000000000416 0  -2 -1.800000000000555 0  -2 -1.750000000000693 0  -2 -1.700000000000832 0  -2 -1.650000000000971 0  -2 -1.60000000000111 0  -2 -1.550000000001248 0  -2 -1.500000000001387 0  -2 -1.450000000001526 0  -2 -1.400000000001664 0  -2 -1.350000000001803 0  -2 -1.300000000001942 0  -2 -1.250000000002081 0  -2 -1.200000000002219 0  -2 -1.150000000002358 0  -2 -1.100000000002496 0  -2 -1.050000000002635 0  -2 -1.000000000002774 0  -2 -0.9500000000029125 0  -2 -0.9000000000030515 0  -2 -0.8500000000031902 0  -2 -0.8000000000033287 0  -2 -0.7500000000034674 0  -2 -0.7000000000036062 0  -2 -0.6500000000037449 0  -2 -0.6000000000038836 0  -2 -0.5500000000040224 0  -2 -0.5000000000041611 0  -2 -0.4500000000042998 0  -2 -0.4000000000044384 0  -2 -0.3500000000045771 0  -2 -0.3000000000047156 0  -2 -0.2500000000048543 0  -2 -0.2000000000049929 0  -2 -0.1500000000051318 0  -2 -0.1000000000052705 0  -2 -0.05000000000540905 0  -2 -5.504485756091526e-12 0  -2 0.04999999999459082 0  -2 0.09999999999472964 0  -2 0.149999999994868 0  -2 0.1999999999950068 0  -2 0.2499999999951457 0  -2 0.299999999995284 0  -2 0.3499999999954229 0  -2 0.3999999999955617 0  -2 0.4499999999957001 0  -2 0.4999999999958389 0  -2 0.5499999999959777 0  -2 0.5999999999961165 0  -2 0.6499999999962549 0  -2 0.6999999999963937 0  -2 0.7499999999965326 0  -2 0.7999999999966709 0  -2 0.8499999999968098 0  -2 0.8999999999969486 0  -2 0.949999999997087 0  -2 0.9999999999972258 0  -2 1.049999999997365 0  -2 1.099999999997503 0  -2 1.149999999997642 0  -2 1.199999999997781 0  -2 1.249999999997919 0  -2 1.299999999998058 0  -2 1.349999999998198 0  -2 1.399999999998336 0  -2 1.449999999998474 0  -2 1.499999999998613 0  -2 1.549999999998751 0  -2 1.599999999998891 0  -2 1.64999999999903 0  -2 1.699999999999168 0  -2 1.749999999999306 0  -2 1.799999999999445 0  -2 1.849999999999584 0  -2 1.899999999999723 0  -2 1.949999999999862 0  -0.9991019297010011 -0.3216894116769606 0  -1.001123860021573 0.7747860510049681 0  -1.157001840564423 -1.161067247012082 0  -1.338027560051535 1.335779534439809 0  -0.6597222222209854 1.340277777778947 0  -0.6585505322915344 0.2210104638722434 0  -1.342670381551713 0.2273264508688188 0  -0.6282204758073073 -0.8120080430170664 0  -0.584236517600881 -1.424312893620663 0  -1.444216308265114 -0.6762220291217811 0  -0.5052068177397626 0.8617966625436217 0  -1.495725541732084 0.8726406067560636 0  -0.5012956875285356 -0.2537377131698332 0  -1.505964779037762 -1.506864731248248 0  -1.533439101629034 -0.2141932377592857 0  -0.9980909254944228 -1.563025322244478 0  -1.573871097078973 -1.076090339205781 0  -0.9938363905916023 1.574658399668859 0  -1.034823301857025 -0.7463046737786232 0  -1.613643420611705 1.613643420611667 0  -0.3789826634893113 1.622833641383097 0  -0.9969623469406674 0.06224895986291776 0  -0.9977570821219073 1.152964911765466 0  -0.3827586671415756 0.4981078379584384 0  -1.617241332858342 0.4981078379584687 0  -0.3735162279179589 -1.10055932464888 0  -0.9514697352838486 0.4195344991084976 0  -0.3671724871528862 -0.5890291676826473 0  -0.8024708669961921 -1.130631989953667 0  -0.3498086031259764 1.176326426441 0  -1.654591699695181 1.175475929606857 0  -0.3418462529951587 0.05839036814553086 0  -1.276352049535552 0.5646214960700082 0  -0.3455726757630372 -1.654274000872155 0  -1.662000930981631 0.09800841401402562 0  -0.7326605900058469 -0.5029780286614124 0  -0.6815317218188973 0.6015493889244842 0  -1.294915051768271 1.68349586060536 0  -0.6978609120161386 1.682418596511037 0  -1.69042813419972 -0.4820149800903958 0  -0.7177378365368432 -1.691938564923942 0  -1.295041566734205 -0.3964989221993158 0  -1.257425593209587 -1.693594420665469 0  -1.246383246782414 -0.1148360514526407 0  -0.7362449271051545 -0.05964032805167522 0  -1.707983706106591 -0.8099422821034401 0  -0.7716224277305496 0.9720234774828133 0  -1.275827556233888 1.059370830779667 0  -1.709731219610966 -1.713515019749574 0  -0.283604077223767 -1.378462113197051 0  -1.331628086330126 -0.9256871504417986 0  -1.718803648671523 -1.313287096736098 0  -1.237157326776588 -1.417624750871973 0  -0.2754377852160807 -0.8405670548436512 0  -0.2604914310470714 0.745077019249353 0  -1.729633983752603 0.7365041208839631 0  -0.2591591556650803 -0.3445128723686334 0  -0.2497705497594995 0.2862378673199174 0  -0.2571319926197782 1.401471300128245 0  -1.750457518478978 1.404891698644917 0  -0.8313391195977098 -1.383947161511035 0  -1.24247470005791 0.8083576983762071 0  -1.75762809210058 -0.121394575294928 0  -1.436009639427774 -1.277692839795198 0  -0.9951285024698884 -0.9801850598617781 0  -0.5860531098993602 1.102916873865959 0  -1.107154037528234 1.367740498542844 0  -1.765353655027761 0.3139359895551974 0  -0.239693234576285 0.9675382248711792 0  -1.762311524625569 0.9715314837693784 0  -1.453060458314344 0.01668426334404738 0  -1.118216683883963 0.2510494134873997 0  -1.487314750788142 -1.768895281943666 0  -0.775695807447912 -0.2851187916602083 0  -1.775021992875828 1.773058151300929 0  -0.2244440016626344 1.771853493176412 0  -0.8797519944267721 1.389822301404418 0  -1.220958717521525 -0.6178523500889427 0  -0.59343770640056 -1.180817576357191 0  -0.9262618789157869 -1.776942446977449 0  -0.2205428235968764 -0.1260615883490472 0  -1.10972339161439 1.777127575560661 0  -0.9394997616645768 -0.5365790009321401 0  -0.812081892264416 -0.7153463049796221 0  -1.783917055200667 -1.008716696077253 0  -0.515263853692324 -1.788606832309386 0  -0.8883686379713935 1.780240085569055 0  -1.545545177082075 0.2916466799431231 0  -1.490071498349099 1.777107893879804 0  -0.5133806951054479 1.777756514587614 0  -1.042544744196485 -1.335739934857762 0  -0.8641039527440014 0.2249999999994 0  -1.475046450324973 0.6546028915744984 0  -1.529677928948796 1.412892352790367 0  -0.4613578028330296 1.41527900122371 0  -1.790928681625402 -1.
[...]
<PointData  Vectors="f_31-0"> 
<DataArray  type="Float64"  Name="f_31-0"  NumberOfComponents="3" format="ascii">-2.5687581596816854e-03 -4.2606277512871995e-03 0.0000000000000000e+00  0.0000000000000000e+00 -2.3038641028664927e-02 0.0000000000000000e+00  0.0000000000000000e+00 -2.2795660637479048e-02 0.0000000000000000e+00  2.5262634201852984e-03 -4.2708653299293612e-03 0.0000000000000000e+00  -2.5948530182329775e-03 -4.3237468238375310e-03 0.0000000000000000e+00  -2.6453597085972988e-03 -4.5347116591245556e-03 0.0000000000000000e+00  -2.7115141442772359e-03 -4.8598945573239648e-03 0.0000000000000000e+00  -2.7859867506856355e-03 -5.2536680260277871e-03 0.0000000000000000e+00  -2.8658173134396836e-03 -5.6817428522306750e-03 0.0000000000000000e+00  -2.9480567400989310e-03 -6.1240972624538436e-03 0.0000000000000000e+00  -3.0314343917004667e-03 -6.5714652291032072e-03 0.0000000000000000e+00  -3.1150420277480874e-03 -7.0199306745700541e-03 0.0000000000000000e+00  -3.1983216909797509e-03 -7.4681404896595393e-03 0.0000000000000000e+00  -3.2808625476018140e-03 -7.9155880944338178e-03 0.0000000000000000e+00  -3.3625161291754293e-03 -8.3620859579091097e-03 0.0000000000000000e+00  -3.4429170363808924e-03 -8.8074658846126978e-03 0.0000000000000000e+00  -3.5219409188967658e-03 -9.2515888813586352e-03 0.0000000000000000e+00  -3.5993782160273699e-03 -9.6942714068772810e-03 0.0000000000000000e+00  -3.6747761043522194e-03 -1.0135264968801377e-02 0.0000000000000000e+00  -3.7479937324046749e-03 -1.0574309514676384e-02 0.0000000000000000e+00  -3.8187407625048788e-03 -1.1011175293811699e-02 0.0000000000000000e+00  -3.8864081029796704e-03 -1.1445532526360219e-02 0.0000000000000000e+00  -3.9506867222440772e-03 -1.1877226002730040e-02 0.0000000000000000e+00  -4.0110782374380843e-03 -1.2306059788269178e-02 0.0000000000000000e+00  -4.0669872307166066e-03 -1.2732026855665443e-02 0.0000000000000000e+00  -4.1178329560561588e-03 -1.3155287086740335e-02 0.0000000000000000e+00  -4.1628697763910942e-03 -1.3576178323620108e-02 0.0000000000000000e+00  -4.2011172808472056e-03 -1.3995409093965157e-02 0.0000000000000000e+00  -4.2318769130075531e-03 -1.4414064500935067e-02 0.0000000000000000e+00  -4.2538426325549675e-03 -1.4833764892299425e-02 0.0000000000000000e+00  -4.2655787867003324e-03 -1.5256767039087746e-02 0.0000000000000000e+00  -4.2652872749903521e-03 -1.5686337493936636e-02 0.0000000000000000e+00  -4.2504376994046845e-03 -1.6126989024293169e-02 0.0000000000000000e+00  -4.2173762238649128e-03 -1.6584980337197529e-02 0.0000000000000000e+00  -4.1609237323236648e-03 -1.7069097713317292e-02 0.0000000000000000e+00  -4.0729494599737945e-03 -1.7591522478355225e-02 0.0000000000000000e+00  -3.9412938023246696e-03 -1.8168171500006578e-02 0.0000000000000000e+00  -3.7482548185709128e-03 -1.8818808323206128e-02 0.0000000000000000e+00  -3.4685485232870527e-03 -1.9561688916981863e-02 0.0000000000000000e+00  -3.0709264945683172e-03 -2.0400580497685783e-02 0.0000000000000000e+00  -2.5268512403566028e-03 -2.1301089070287729e-02 0.0000000000000000e+00  -1.8131532949689868e-03 -2.2157561508750128e-02 0.0000000000000000e+00  -9.5281116545488766e-04 -2.2797760451850502e-02 0.0000000000000000e+00  0.0000000000000000e+00 -2.2071717574690345e-02 0.0000000000000000e+00  0.0000000000000000e+00 -2.1151014081163162e-02 0.0000000000000000e+00  0.0000000000000000e+00 -2.0319278823329741e-02 0.0000000000000000e+00  0.0000000000000000e+00 -1.9599483915274767e-02 0.0000000000000000e+00  0.0000000000000000e+00 -1.8991046539030505e-02 0.0000000000000000e+00  0.0000000000000000e+00 -1.8478025987613382e-02 0.0000000000000000e+00  0.0000000000000000e+00 -1.8041604940581497e-02 0.0000000000000000e+00  0.0000000000000000e+00 -1.7664704735260481e-02 0.0000000000000000e+00  0.0000000000000000e+00 -1.7333376319718225e-02 0.0000000000000000e+00  0.0000000000000000e+00 -1.7036424094337435e-02 0.0000000000000000e+00  0.0000000000000000e+00 -1.6764297570402140e-02 0.0000000000000000e+00  0.0000000000000000e+00 -1.6508364765772082e-02 0.0000000000000000e+00  0.0000000000000000e+00 -1.6260611920223149e-02 0.0000000000000000e+00  0.0000000000000000e+00 -1.6012553944679844e-02 0.0000000000000000e+00  0.0000000000000000e+00 -1.5755773744827270e-02 0.0000000000000000e+00  0.0000000000000000e+00 -1.5480092752443334e-02 0.0000000000000000e+00  0.0000000000000000e+00 -1.5174365113525070e-02 0.0000000000000000e+00  0.0000000000000000e+00 -1.4825416554265603e-02 0.0000000000000000e+00  0.0000000000000000e+00 -1.4417166703819616e-02 0.0000000000000000e+00  0.0000000000000000e+00 -1.3930584885025712e-02 0.0000000000000000e+00  0.0000000000000000e+00 -1.3342491471493001e-02 0.0000000000000000e+00  0.0000000000000000e+00 -1.2624049462526604e-02 0.0000000000000000e+00  0.0000000000000000e+00 -1.1740743175451339e-02 0.0000000000000000e+00  0.0000000000000000e+00 -1.0650049147806897e-02 0.0000000000000000e+00  0.0000000000000000e+00 -9.2995335020755847e-03 0.0000000000000000e+00  0.0000000000000000e+00 -7.6297337382307765e-03 0.0000000000000000e+00  0.0000000000000000e+00 -5.5662527221132345e-03 0.0000000000000000e+00  0.0000000000000000e+00 -3.0253150385182353e-03 0.0000000000000000e+00  0.0000000000000000e+00 8.3050378813379861e-05 0.0000000000000000e+00  0.0000000000000000e+00 3.8552820881371228e-03 0.0000000000000000e+00  0.0000000000000000e+00 8.3796811774192043e-03 0.0000000000000000e+00  0.0000000000000000e+00 1.3712108233082285e-02 0.0000000000000000e+00  0.0000000000000000e+00 1.9859538030799713e-02 0.0000000000000000e+00  0.0000000000000000e+00 2.6739672722403858e-02 0.0000000000000000e+00  0.0000000000000000e+00 3.4131962252276001e-02 0.0000000000000000e+00  0.0000000000000000e+00 4.1661286373477990e-02 0.0000000000000000e+00  0.0000000000000000e+00 4.8783445769324335e-02 0.0000000000000000e+00  0.0000000000000000e+00 5.4857990226443637e-02 0.0000000000000000e+00  0.0000000000000000e+00 5.9200358650637747e-02 0.0000000000000000e+00  0.0000000000000000e+00 6.1276143933069099e-02 0.0000000000000000e+00  0.0000000000000000e+00 6.0800943821266995e-02 0.0000000000000000e+00  0.0000000000000000e+00 5.7825296896482740e-02 0.0000000000000000e+00  0.0000000000000000e+00 5.2728484531063394e-02 0.0000000000000000e+00  0.0000000000000000e+00 4.6112276931242667e-02 0.0000000000000000e+00  0.0000000000000000e+00 3.8663509868297100e-02 0.0000000000000000e+00  0.0000000000000000e+00 3.1013565990313501e-02 0.0000000000000000e+00  0.0000000000000000e+00 2.3667426203125119e-02 0.0000000000000000e+00  0.0000000000000000e+00 1.6946810229016614e-02 0.0000000000000000e+00  0.0000000000000000e+00 1.1027791587770850e-02 0.0000000000000000e+00  0.0000000000000000e+00 5.9548190499619531e-03 0.0000000000000000e+00  0.0000000000000000e+00 1.6997665253266777e-03 0.0000000000000000e+00  0.0000000000000000e+00 -1.8167077175371368e-03 0.0000000000000000e+00  0.0000000000000000e+00 -4.6895807364045776e-03 0.0000000000000000e+00  0.0000000000000000e+00 -7.0196762180303992e-03 0.0000000000000000e+00  0.0000000000000000e+00 -8.8989534989326168e-03 0.0000000000000000e+00  0.0000000000000000e+00 -1.0409804631060175e-02 0.0000000000000000e+00  0.0000000000000000e+00 -1.1623667144095746e-02 0.0000000000000000e+00  0.0000000000000000e+00 -1.2599153303444738e-02 0.0000000000000000e+00  0.0000000000000000e+00 -1.3385629304760413e-02 0.0000000000000000e+00  0.0000000000000000e+00 -1.4023231716091440e-02 0.0000000000000000e+00  0.0000000000000000e+00 -1.4544567596057489e-02 0.0000000000000000e+00  0.0000000000000000e+00 -1.4976278868962656e-02 0.0000000000000000e+00  0.0000000000000000e+00 -1.5339875309891919e-02 0.0000000000000000e+00  0.0000000000000000e+00 -1.5653375005118458e-02 0.0000000000000000e+00  0.0000000000000000e+00 -1.5931557164039507e-02 0.0000000000000000e+00  0.0000000000000000e+00 -1.6186557406262434e-02 0.0000000000000000e+00  0.0000000000000000e+00 -1.6428963340069085e-02 0.0000000000000000e+00  0.0000000000000000e+00 -1.6668454333422292e-02 0.0000000000000000e+00  0.0000000000000000e+00 -1.6913264948918351e-02 0.0000000000000000e+00  0.0000000000000000e+00 -1.7171421272101993e-02 0.0000000000000000e+00  0.0000000000000000e+00 -1.7451413894739767e-02 0.0000000000000000e+00  0.0000000000000000e+00 -1.7762174553386481e-02 0.0000000000000000e+00  0.0000000000000000e+00 -1.8114017097876228e-02 0.0000000000000000e+00  0.0000000000000000e+00 -1.8519314642476921e-02 0.0000000000000000e+00  0.0000000000000000e+00 -1.8993533831221095e-02 0.0000000000000000e+00  0.0000000000000000e+00 -1.9554970794720794e-02 0.0000000000000000e+00  0.0000000000000000e+00 -2.0219645993618265e-02 0.0000000000000000e+00  0.0000000000000000e+00 -2.0995906862253364e-02 0.0000000000000000e+00  0.0000000000000000e+00 -2.1867793745126454e-02 0.0000000000000000e+00  9.1855185519739736e-04 -2.2584629413063724e-02 0.0000000000000000e+00  1.7514409230136984e-03 -2.2019815818943460e-02 0.0000000000000000e+00  2.4428775579020284e-03 -2.1253985024791953e-02 0.0000000000000000e+00  2.9777172449551802e-03 -2.0436421870983237e-02 0.0000000000000000e+00  3.3718468716565750e-03 -1.9659608255467090e-02 0.0000000000000000e+00  3.6522852649572674e-03 -1.8958325102792516e-02 0.0000000000000000e+00  3.8488390153876870e-03 -1.8333208668507673e-02 0.0000000000000000e+00  3.9843685812575242e-03 -1.7770969709335938e-02 0.0000000000000000e+00  4.0761569730386827e-03 -1.7255983178166644e-02 0.0000000000000000e+00  4.1361958244174254e-03 -1.6774885176793278e-02 0.0000000000000000e+00  4.1716530833955752e-03 -1.6317298267376174e-02 0.0000000000000000e+00  4.1885346926445171e-03 -1.5875209278345261e-02 0.0000000000000000e+00  4.1903950742155577e-03 -1.5442938284613249e-02 0.0000000000000000e+00  4.1798185616638336e-03 -1.5016292220698091e-02 0.0000000000000000e+00  4.1589387776584906e-03 -1.4592311342111272e-02 0.0000000000000000e+00  4.1288948158088815e-03 -1.4168759222887562e-02 0.0000000000000000e+00  4.0913766403175168e-03 -1.3744138815238083e-02 0.0000000000000000e+00  4.0471872451889246e-03 -1.3317491892048363e-02 0.0000000000000000e+00  3.9971943527623548e-03 -1.2888130162364219e-02 0.0000000000000000e+00  3.9424034629723026e-03 -1.2455819131432753e-02 0.0000000000000000e+00  3.8829484256421242e-03 -1.2020425762239781e-02 0.0000000000000000e+00  3.8199478013016467e-03 -1.1582031839158520e-02 0.0000000000000000e+00  3.7536005945356548e-03 -1.1140844530869290e-02 0.0000000000000000e+00  3.6844172568010142e-03 -1.0697104506554931e-02 0.0000000000000000e+00  3.6129791348998561e-03 -1.0251102706797849e-02 0.0000000000000000e+00  3.5391540160060637e-03 -9.8031445634263002e-03 0.0000000000000000e+00  3.4635892354830801e-03 -9.3534657323702929e-03 0.0000000000000000e+00  3.3864776037650364e-03 -8.9022989369877976e-03 0.0000000000000000e+00  3.3079551871387819e-03 -8.4498764762950783e-03 0.0000000000000000e+00  3.2282643355795327e-03 -7.9962322586224072e-03 0.0000000000000000e+00  3.1474538923686860e-03 -7.5415261551229377e-03 0.0000000000000000e+00  3.0661329483434793e-03 -7.0858160597374086e-03 0.0000000000000000e+00  2.9840537383006701e-03 -6.6295343344804723e-03 0.0000000000000000e+00  2.9022402425298651e-03 -6.1740236004347512e-03 0.0000000000000000e+00  2.8211251579547004e-03 -5.7231081981413551e-03 0.0000000000000000e+00  2.7423852177304938e-03 -5.2862943512149065e-03 0.0000000000000000e+00  2.6686180147789825e-03 -4.8841767587244570e-03 0.0000000000000000e+00  2.6028013969574991e-03 -4.5518266760965148e-03 0.0000000000000000e+00  2.5526927985488777e-03 -4.3357018762630239e-03 0.0000000000000000e+00  2.4106655032482332e-03 -4.2983538503547983e-03 0.0000000000000000e+00  2.1318184104647461e-03 -4.3536390543054814e-03 0.0000000000000000e+00  1.7507506011917779e-03 -4.4293968204073605e-03 0.0000000000000000e+00  1.3190831608672605e-03 -4.5200497526948283e-03 0.0000000000000000e+00  8.6994265442587673e-04 -4.6218931411223709e-03 0.0000000000000000e+00  4.2082728673840307e-04 -4.7319298769696577e-03 0.0000000000000000e+00  -2.0851303266017944e-05 -4.8488994094540170e-03 0.0000000000000000e+00  -4.5234267954718935e-04 -4.9709123067934267e-03 0.0000000000000000e+00  -8.7236754125494904e-04 -5.0975006659904690e-03 0.0000000000000000e+00  -1.2801497899710031e-03 -5.2276466454175032e-03 0.0000000000000000e+00  -1.6746694029221264e-03 -5.3615722665318272e-03 0.0000000000000000e+00  -2.0549252866229415e-03 -5.4981735353007632e-03 0.0000000000000000e+00  -2.4194955664220866e-03 -5.6372668918492136e-03 0.0000000000000000e+00  -2.7668415862477057e-03 -5.7782500992721430e-03 0.0000000000000000e+00  -3.0951200945933499e-03 -5.9210417416537013e-03 0.0000000000000000e+00  -3.4025034147122431e-03 -6.0646250061814093e-03 0.0000000000000000e+00  -3.6867952321836097e-03 -6.2086137803279489e-03 0.0000000000000000e+00  -3.9457579587277554e-03 -6.3523307501154019e-03 0.0000000000000000e+00  -4.1769162752628890e-03 -6.4950777248321571e-03 0.0000000000000000e+00  -4.3777778027759440e-03 -6.6360475871186878e-03 0.0000000000000000e+00  -4.5457033564273597e-03 -6.7746517160750036e-03 0.0000000000000000e+00  -4.6779572367717610e-03 -6.9099705227572139e-03 0.0000000000000000e+00  -4.7720694478320625e-03 -7.0411268906709901e-03 0.0000000000000000e+00  -4.8252976239298220e-03 -7.1675454919816230e-03 0.0000000000000000e+00  -4.8353669622889697e-03 -7.2884357150629509e-03 0.0000000000000000e+00  -4.8001536545897493e-03 -7.4030379044114228e-03 0.0000000000000000e+00  -4.7178070847663728e-03 -7.5107995122733950e-03 0.0000000000000000e+00  -4.5872235633218350e-03 -7.6111547672655265e-03 0.0000000000000000e+00  -4.4072304571076823e-03 -7.7038223610001420e-03 0.0000000000000000e+00  -4.1780746822657252e-03 -7.7883738107326489e-03 0.0000000000000000e+00  -3.9003765330177520e-03 -7.8647219777267137e-03 0.0000000000000000e+00  -3.5754996002836932e-03 -7.9328264412186766e-03 0.0000000000000000e+00  -3.2060152479262516e-03 -7.9926861394112175e-03 0.0000000000000000e+00  -2.7950002872469785e-03 -8.0443149047617624e-03 0.0000000000000000e+00  -2.3468663992549901e-03 -8.0880926900235624e-03 0.0000000000000000e+00  -1.8666809828261405e-03 -8.1240508293354066e-03 0.0000000000000000e+00  -1.3603148487038343e-03 -8.1524569248032260e-03 0.0000000000000000e+00  -8.3441540468635867e-04 -8.1734442446388181e-03 0.0000000000000000e+00  -2.9598093566015108e-04 -8.1869622038329704e-03 0.0000000000000000e+00  2.4751194689940015e-04 -8.1931871307094287e-03 0.0000000000000000e+00  7.8847518792517430e-04 -8.1919302104828152e-03 0.0000000000000000e+00  1.3193301110274416e-03 -8.1830916887718173e-03 0.0000000000000000e+00  1.8328512045622115e-03 -8.1663451029674785e-03 0.0000000000000000e+00  2.3223269480029418e-03 -8.1417500461060405e-03 0.0000000000000000e+00  2.7812569820508445e-03 -8.1082433430323415e-03 0.0000000000000000e+00  3.2048149575397413e-03 -8.0664203552820481e-03 0.0000000000000000e+00  3.5878730805767433e-03 -8.0154772566962216e-03 0.0000000000000000e+00  3.9271401912006976e-03 -7.9554950377937785e-03 0.0000000000000000e+00  4.2197762401718760e-03 -7.8862559963064783e-03 0.0000000000000000e+00  4.4641411290691109e-03 -7.8079762506815262e-03 0.0000000000000000e+00  4.6591077581527489e-03 -7.7207712687204335e-03 0.0000000000000000e+00  4.8047849847793886e-03 -7.6249383434154943e-03 0.0000000000000000e+00  4.9016277454131760e-03 -7.5208536379729263e-03 0.0000000000000000e+00  4.9509459539206022e-03 -7.4092465637781045e-03 0.0000000000000000e+00  4.9545050419884246e-03 -7.2907096795155205e-03 0.0000000000000000e+00  4.9141655289280106e-03 -7.1658552859562808e-03 0.0000000000000000e+00  4.8325362862052350e-03 -7.0356944616068234e-03 0.0000000000000000e+00  4.7121059313673021e-03 -6.9009339700555825e-03 0.0000000000000000e+00  4.5555774301445657e-03 -6.7624379581494570e-03 0.0000000000000000e+00  4.3656780643930235e-03 -6.6210834445979217e-03 0.0000000000000000e+00  4.1450457946228415e-03 -6.4776746976217530e-03 0.0000000000000000e+00  3.8963190663626832e-03 -6.3329433507283862e-03 0.0000000000000000e+00  3.6220202320245173e-03 -6.1877295902983487e-03 0.0000000000000000e+00  3.3245691988663430e-03 -6.0425364935149887e-03 0.0000000000000000e+00  3.0060789806133064e-03 -5.8982447424428030e-03 0.0000000000000000e+00  2.6686411299477399e-03 -5.7552905274074126e-03 0.0000000000000000e+00  2.3141161864936215e-03 -5.6141338464166194e-03 0.0000000000000000e+00  1.9441431480999741e-03 -5.4753875118902827e-03 0.0000000000000000e+00  1.5602611026311313e-03 -5.3392884612404028e-03 0.0000000000000000e+00  1.1636675643800800e-03 -5.2064273990445340e-03 0.0000000000000000e+00  7.5548312541356434e-04 -5.0769940797803495e-03 0.0000000000000000e+00  3.3657569120804223e-04 -4.9516723487725281e-03 0.0000000000000000e+00  -9.2179803361415395e-05 -4.8308618581744929e-03 0.0000000000000000e+00  -5.2950649073965704e-04 -4.7154490869390064e-03 0.0000000000000000e+00  -9.7226492140607939e-04 -4.6066114259336998e-03 0.0000000000000000e+00  -1.4125089230614828e-03 -4.5061837806457039e-03 0.0000000000000000e+00  -1.8320192594815971e-03 -4.4165369278628486e-03 0.0000000000000000e+00  -2.1977184376041768e-03 -4.3422421259564211e-03 0.0000000000000000e+00  -2.4615595965116616e-03 -4.2875047209555671e-03 0.0000000000000000e+00  -1.0922804699084999e-02 -1.2974964015945938e-02 0.0000000000000000e+00  4.9283384235135628e-03 -1.6003478410192527e-02 0.0000000000000000e+00  -2.2592281348936937e-03 -1.2609298570173047e-02 0.0000000000000000e+00  1.0265137670525842e-03 -1.0514013103482807e-02 0.0000000000000000e+00  -8.6196292608144598e-04 -1.5683089971847104e-02 0.0000000000000000e+00  3.0771298735178471e-03 -5.9473188261135457e-02 0.0000000000000000e+00  4.6288871692947006e-03 -6.8120633487663814e-03 0.0000000000000000e+00  1.6147243372838027e-04 -2.1137799322142908e-02 0.0000000000000000e+00  1.1857662884627428e-03 -1.6052751146236711e-02 0.0000000000000000e+00  -5.2257469204188877e-03 -9.1877291060231837e-03 0.0000000000000000e+00  -2.2872002152601054e-03 -1.8867954187247751e-02 0.0000000000000000e+00  4.2874129325240033e-03 -9.4959646030526815e-03 0.0000000000000000e+00  2.9505518332799192e-02 -7.0089294418887907e-02 0.0000000000000000e+00  -1.5992956901086718e-04 -8.7675959688539671e-03 0.0000000000000000e+00  -2.4807873843241289e-03 -6.4359603707332107e-03 0.0000000000000000e+00  1.1962396194293342e-03 -1.3087777183162112e-02 0.0000000000000000e+00  -3.2930100230394322e-03 -8.7678725569243065e-03 0.0000000000000000e+00  -1.4692034712523640e-03 -1.2961309630409226e-02 0.0000000000000000e+00  -6.0577660933319542e-03 -1.5302691795321701e-02 0.0000000000000000e+00  -6.2313057793401396e-04 -7.5829355164609754e-03 0.0000000000000000e+00  -2.0521955943932075e-03 -1.6796406830825603e-02 0.0000000000000000e+00  5.6226346075752788e-03 -8.9375366960686899e-03 0.0000000000000000e+00  1.5215938519613280e-03 -1.4143226175963126e-02 0.0000000000000000e+00  -1.6326763643956577e-02 -2.2454377912154846e-02 0.0000000000000000e+00  4.5842525855380239e-03 -7.9406409695589285e-03 0.0000000000000000e+00  1.5153586925771572e-03 -1.6767288483906934e-02 0.0000000000000000e+00  1.0291661486374686e-02 -1.8560857439969481e-02 0.0000000000000000e+00  1.3046021339854625e-02 -2.0604434244816571e-02 0.0000000000000000e+00  -9.7379554149034048e-04 -1.6131003809690583e-02 0.0000000000000000e+00  -1.3093344637124297e-03 -1.6284301999128569e-02 0.0000000000000000e+00  2.6691731465262932e-03 -8.0538371270489871e-03 0.0000000000000000e+00  -2.6326994278107120e-02 -1.6527453073455014e-02 0.0000000000000000e+00  6.4631986304475222e-03 -1.0736493424330331e-02 0.0000000000000000e+00  1.9890797796271280e-03 -1.7202053065262412e-02 0.0000000000000000e+00  1.4501129444255108e-03 -6.8122687546471848e-03 0.0000000000000000e+00  -6.2694215490297876e-03 -3.0120891766854143e-02 0.0000000000000000e+00  1.0255148903783073e-03 -2.6013196378745437e-02 0.0000000000000000e+00  -1.7578078557221604e-03 -1.0248933339343586e-02 0.0000000000000000e+00  -2.6178616224456727e-03 -1.4975217485383748e-02 0.0000000000000000e+00  -4.