<?xml version="1.0"?>
<VTKFile type="UnstructuredGrid"  version="0.1"  >
<UnstructuredGrid>
<Piece  NumberOfPoints="4372" NumberOfCells="8502">
<Points>
<DataArray  type="Float64"  NumberOfComponents="3"  format="ascii">-2 2 0  0 2 0  0 -2 0  -2 -2 0  -1.949999999999792 2 0  -1.899999999999584 2 0  -1.849999999999375 2 0  -1.799999999999167 2 0  -1.749999999999002 2 0  -1.699999999999306 2 0  -1.649999999999653 2 0  -1.6 2 0  -1.550000000000346 2 0  -1.500000000000693 2 0  -1.45000000000104 2 0  -1.400000000001387 2 0  -1.350000000001733 2 0  -1.30000000000208 2 0  -1.250000000002427 2 0  -1.200000000002774 2 0  -1.150000000003121 2 0  -1.100000000003467 2 0  -1.050000000003814 2 0  -1.000000000004117 2 0  -0.9500000000039528 2 0  -0.9000000000037447 2 0  -0.8500000000035368 2 0  -0.8000000000033287 2 0  -0.7500000000031206 2 0  -0.7000000000029127 2 0  -0.6500000000027044 2 0  -0.6000000000024965 2 0  -0.5500000000022884 2 0  -0.5000000000020806 2 0  -0.4500000000018725 2 0  -0.4000000000016644 2 0  -0.3500000000014563 2 0  -0.3000000000012482 2 0  -0.2500000000010403 2 0  -0.200000000000832 2 0  -0.1500000000006243 2 0  -0.100000000000416 2 0  -0.0500000000002081 2 0  0 1.950000000000139 0  0 1.900000000000277 0  0 1.850000000000416 0  0 1.800000000000555 0  0 1.750000000000693 0  0 1.700000000000832 0  0 1.650000000000971 0  0 1.60000000000111 0  0 1.550000000001248 0  0 1.500000000001387 0  0 1.450000000001526 0  0 1.400000000001664 0  0 1.350000000001803 0  0 1.300000000001942 0  0 1.250000000002081 0  0 1.200000000002219 0  0 1.150000000002358 0  0 1.100000000002496 0  0 1.050000000002635 0  0 1.000000000002774 0  0 0.9500000000029125 0  0 0.9000000000030515 0  0 0.8500000000031902 0  0 0.8000000000033287 0  0 0.7500000000034674 0  0 0.7000000000036062 0  0 0.6500000000037449 0  0 0.6000000000038836 0  0 0.5500000000040224 0  0 0.5000000000041611 0  0 0.4500000000042998 0  0 0.4000000000044384 0  0 0.3500000000045771 0  0 0.3000000000047156 0  0 0.2500000000048543 0  0 0.2000000000049929 0  0 0.1500000000051318 0  0 0.1000000000052705 0  0 0.05000000000540905 0  0 5.504485756091526e-12 0  0 -0.04999999999459082 0  0 -0.09999999999472964 0  0 -0.149999999994868 0  0 -0.1999999999950068 0  0 -0.2499999999951457 0  0 -0.299999999995284 0  0 -0.3499999999954229 0  0 -0.3999999999955617 0  0 -0.4499999999957001 0  0 -0.4999999999958389 0  0 -0.5499999999959777 0  0 -0.5999999999961165 0  0 -0.6499999999962549 0  0 -0.6999999999963937 0  0 -0.7499999999965326 0  0 -0.7999999999966709 0  0 -0.8499999999968098 0  0 -0.8999999999969486 0  0 -0.949999999997087 0  0 -0.9999999999972258 0  0 -1.049999999997365 0  0 -1.099999999997503 0  0 -1.149999999997642 0  0 -1.199999999997781 0  0 -1.249999999997919 0  0 -1.299999999998058 0  0 -1.349999999998198 0  0 -1.399999999998336 0  0 -1.449999999998474 0  0 -1.499999999998613 0  0 -1.549999999998751 0  0 -1.599999999998891 0  0 -1.64999999999903 0  0 -1.699999999999168 0  0 -1.749999999999306 0  0 -1.799999999999445 0  0 -1.849999999999584 0  0 -1.899999999999723 0  0 -1.949999999999862 0  -0.04999999999990573 -2 0  -0.0999999999997993 -2 0  -0.1499999999997056 -2 0  -0.1999999999996293 -2 0  -0.2499999999995475 -2 0  -0.2999999999994072 -2 0  -0.3499999999992615 -2 0  -0.3999999999991157 -2 0  -0.44999999999897 -2 0  -0.4999999999988242 -2 0  -0.5499999999986784 -2 0  -0.5999999999985328 -2 0  -0.649999999998387 -2 0  -0.6999999999982413 -2 0  -0.7499999999980955 -2 0  -0.7999999999979498 -2 0  -0.8499999999978042 -2 0  -0.8999999999976585 -2 0  -0.9499999999975127 -2 0  -0.9999999999973885 -2 0  -1.049999999997498 -2 0  -1.09999999999763 -2 0  -1.149999999997762 -2 0  -1.199999999997894 -2 0  -1.249999999998025 -2 0  -1.299999999998157 -2 0  -1.349999999998289 -2 0  -1.39999999999842 -2 0  -1.449999999998552 -2 0  -1.499999999998683 -2 0  -1.549999999998815 -2 0  -1.599999999998947 -2 0  -1.649999999999078 -2 0  -1.69999999999921 -2 0  -1.749999999999342 -2 0  -1.799999999999474 -2 0  -1.849999999999605 -2 0  -1.899999999999737 -2 0  -1.949999999999869 -2 0  -2 -1.950000000000139 0  -2 -1.900000000000277 0  -2 -1.850000000000416 0  -2 -1.800000000000555 0  -2 -1.750000000000693 0  -2 -1.700000000000832 0  -2 -1.650000000000971 0  -2 -1.60000000000111 0  -2 -1.550000000001248 0  -2 -1.500000000001387 0  -2 -1.450000000001526 0  -2 -1.400000000001664 0  -2 -1.350000000001803 0  -2 -1.300000000001942 0  -2 -1.250000000002081 0  -2 -1.200000000002219 0  -2 -1.150000000002358 0  -2 -1.100000000002496 0  -2 -1.050000000002635 0  -2 -1.000000000002774 0  -2 -0.9500000000029125 0  -2 -0.9000000000030515 0  -2 -0.8500000000031902 0  -2 -0.8000000000033287 0  -2 -0.7500000000034674 0  -2 -0.7000000000036062 0  -2 -0.6500000000037449 0  -2 -0.6000000000038836 0  -2 -0.5500000000040224 0  -2 -0.5000000000041611 0  -2 -0.4500000000042998 0  -2 -0.4000000000044384 0  -2 -0.3500000000045771 0  -2 -0.3000000000047156 0  -2 -0.2500000000048543 0  -2 -0.2000000000049929 0  -2 -0.1500000000051318 0  -2 -0.1000000000052705 0  -2 -0.05000000000540905 0  -2 -5.504485756091526e-12 0  -2 0.04999999999459082 0  -2 0.09999999999472964 0  -2 0.149999999994868 0  -2 0.1999999999950068 0  -2 0.2499999999951457 0  -2 0.299999999995284 0  -2 0.3499999999954229 0  -2 0.3999999999955617 0  -2 0.4499999999957001 0  -2 0.4999999999958389 0  -2 0.5499999999959777 0  -2 0.5999999999961165 0  -2 0.6499999999962549 0  -2 0.6999999999963937 0  -2 0.7499999999965326 0  -2 0.7999999999966709 0  -2 0.8499999999968098 0  -2 0.8999999999969486 0  -2 0.949999999997087 0  -2 0.9999999999972258 0  -2 1.049999999997365 0  -2 1.099999999997503 0  -2 1.149999999997642 0  -2 1.199999999997781 0  -2 1.249999999997919 0  -2 1.299999999998058 0  -2 1.349999999998198 0  -2 1.399999999998336 0  -2 1.449999999998474 0  -2 1.499999999998613 0  -2 1.549999999998751 0  -2 1.599999999998891 0  -2 1.64999999999903 0  -2 1.699999999999168 0  -2 1.749999999999306 0  -2 1.799999999999445 0  -2 1.849999999999584 0  -2 1.899999999999723 0  -2 1.949999999999862 0  -0.9991019297010011 -0.3216894116769606 0  -1.001123860021573 0.7747860510049681 0  -1.157001840564423 -1.161067247012082 0  -1.338027560051535 1.335779534439809 0  -0.6597222222209854 1.340277777778947 0  -0.6585505322915344 0.2210104638722434 0  -1.342670381551713 0.2273264508688188 0  -0.6282204758073073 -0.8120080430170664 0  -0.584236517600881 -1.424312893620663 0  -1.444216308265114 -0.6762220291217811 0  -0.5052068177397626 0.8617966625436217 0  -1.495725541732084 0.8726406067560636 0  -0.5012956875285356 -0.2537377131698332 0  -1.505964779037762 -1.506864731248248 0  -1.533439101629034 -0.2141932377592857 0  -0.9980909254944228 -1.563025322244478 0  -1.573871097078973 -1.076090339205781 0  -0.9938363905916023 1.574658399668859 0  -1.034823301857025 -0.7463046737786232 0  -1.613643420611705 1.613643420611667 0  -0.3789826634893113 1.622833641383097 0  -0.9969623469406674 0.06224895986291776 0  -0.9977570821219073 1.152964911765466 0  -0.3827586671415756 0.4981078379584384 0  -1.617241332858342 0.4981078379584687 0  -0.3735162279179589 -1.10055932464888 0  -0.9514697352838486 0.4195344991084976 0  -0.3671724871528862 -0.5890291676826473 0  -0.8024708669961921 -1.130631989953667 0  -0.3498086031259764 1.176326426441 0  -1.654591699695181 1.175475929606857 0  -0.3418462529951587 0.05839036814553086 0  -1.276352049535552 0.5646214960700082 0  -0.3455726757630372 -1.654274000872155 0  -1.662000930981631 0.09800841401402562 0  -0.7326605900058469 -0.5029780286614124 0  -0.6815317218188973 0.6015493889244842 0  -1.294915051768271 1.68349586060536 0  -0.6978609120161386 1.682418596511037 0  -1.69042813419972 -0.4820149800903958 0  -0.7177378365368432 -1.691938564923942 0  -1.295041566734205 -0.3964989221993158 0  -1.257425593209587 -1.693594420665469 0  -1.246383246782414 -0.1148360514526407 0  -0.7362449271051545 -0.05964032805167522 0  -1.707983706106591 -0.8099422821034401 0  -0.7716224277305496 0.9720234774828133 0  -1.275827556233888 1.059370830779667 0  -1.709731219610966 -1.713515019749574 0  -0.283604077223767 -1.378462113197051 0  -1.331628086330126 -0.9256871504417986 0  -1.718803648671523 -1.313287096736098 0  -1.237157326776588 -1.417624750871973 0  -0.2754377852160807 -0.8405670548436512 0  -0.2604914310470714 0.745077019249353 0  -1.729633983752603 0.7365041208839631 0  -0.2591591556650803 -0.3445128723686334 0  -0.2497705497594995 0.2862378673199174 0  -0.2571319926197782 1.401471300128245 0  -1.750457518478978 1.404891698644917 0  -0.8313391195977098 -1.383947161511035 0  -1.24247470005791 0.8083576983762071 0  -1.75762809210058 -0.121394575294928 0  -1.436009639427774 -1.277692839795198 0  -0.9951285024698884 -0.9801850598617781 0  -0.5860531098993602 1.102916873865959 0  -1.107154037528234 1.367740498542844 0  -1.765353655027761 0.3139359895551974 0  -0.239693234576285 0.9675382248711792 0  -1.762311524625569 0.9715314837693784 0  -1.453060458314344 0.01668426334404738 0  -1.118216683883963 0.2510494134873997 0  -1.487314750788142 -1.768895281943666 0  -0.775695807447912 -0.2851187916602083 0  -1.775021992875828 1.773058151300929 0  -0.2244440016626344 1.771853493176412 0  -0.8797519944267721 1.389822301404418 0  -1.220958717521525 -0.6178523500889427 0  -0.59343770640056 -1.180817576357191 0  -0.9262618789157869 -1.776942446977449 0  -0.2205428235968764 -0.1260615883490472 0  -1.10972339161439 1.777127575560661 0  -0.9394997616645768 -0.5365790009321401 0  -0.812081892264416 -0.7153463049796221 0  -1.783917055200667 -1.008716696077253 0  -0.515263853692324 -1.788606832309386 0  -0.8883686379713935 1.780240085569055 0  -1.545545177082075 0.2916466799431231 0  -1.490071498349099 1.777107893879804 0  -0.5133806951054479 1.777756514587614 0  -1.042544744196485 -1.335739934857762 0  -0.8641039527440014 0.2249999999994 0  -1.475046450324973 0.6546028915744984 0  -1.529677928948796 1.412892352790367 0  -0.4613578028330296 1.41527900122371 0  -1.790928681625402 -1.
[...]
<PointData  Vectors="f_31-0"> 
<DataArray  type="Float64"  Name="f_31-0"  NumberOfComponents="3" format="ascii">-2.6193267181568720e-03 -4.1685050161850449e-03 0.0000000000000000e+00  0.0000000000000000e+00 -2.3329404484952132e-02 0.0000000000000000e+00  0.0000000000000000e+00 -2.3090235018674986e-02 0.0000000000000000e+00  2.5852476196786202e-03 -4.1761522471263461e-03 0.0000000000000000e+00  -2.6468312040122751e-03 -4.2402510432877401e-03 0.0000000000000000e+00  -2.6996949245287030e-03 -4.4728500156516419e-03 0.0000000000000000e+00  -2.7683062587124815e-03 -4.8208671481911958e-03 0.0000000000000000e+00  -2.8445822066828792e-03 -5.2313135377627454e-03 0.0000000000000000e+00  -2.9256628828614665e-03 -5.6693242958910355e-03 0.0000000000000000e+00  -3.0085767914834723e-03 -6.1170678009999264e-03 0.0000000000000000e+00  -3.0922742831083704e-03 -6.5674426007262801e-03 0.0000000000000000e+00  -3.1759837489127216e-03 -7.0177807200637720e-03 0.0000000000000000e+00  -3.2592455409211647e-03 -7.4673380657577270e-03 0.0000000000000000e+00  -3.3416794286656726e-03 -7.9158789187381111e-03 0.0000000000000000e+00  -3.4232133131535665e-03 -8.3633318450933199e-03 0.0000000000000000e+00  -3.5034476373516665e-03 -8.8095707216978205e-03 0.0000000000000000e+00  -3.5823027410338939e-03 -9.2544898334283362e-03 0.0000000000000000e+00  -3.6595922223126541e-03 -9.6979183291037493e-03 0.0000000000000000e+00  -3.7347833467243846e-03 -1.0139612387665775e-02 0.0000000000000000e+00  -3.8078075014203946e-03 -1.0579314019752336e-02 0.0000000000000000e+00  -3.8784063279915975e-03 -1.1016796252507564e-02 0.0000000000000000e+00  -3.9458908306630900e-03 -1.1451692701590270e-02 0.0000000000000000e+00  -4.0100068031699177e-03 -1.1883866190711093e-02 0.0000000000000000e+00  -4.0702897263809436e-03 -1.2313071664967432e-02 0.0000000000000000e+00  -4.1261449620916000e-03 -1.2739283749847504e-02 0.0000000000000000e+00  -4.1770618536786331e-03 -1.3162626776567840e-02 0.0000000000000000e+00  -4.2223266432938307e-03 -1.3583384387655073e-02 0.0000000000000000e+00  -4.2609570140483503e-03 -1.4002210523735653e-02 0.0000000000000000e+00  -4.2924584326849676e-03 -1.4420114309085385e-02 0.0000000000000000e+00  -4.3155818497277142e-03 -1.4838606189255716e-02 0.0000000000000000e+00  -4.3290535467388602e-03 -1.5259779077557788e-02 0.0000000000000000e+00  -4.3313590927376924e-03 -1.5686695777062956e-02 0.0000000000000000e+00  -4.3203316513325853e-03 -1.6123588161606413e-02 0.0000000000000000e+00  -4.2928082641690490e-03 -1.6576329279535833e-02 0.0000000000000000e+00  -4.2443734362695865e-03 -1.7053287347389971e-02 0.0000000000000000e+00  -4.1677860012302127e-03 -1.7566363506224834e-02 0.0000000000000000e+00  -4.0518304440080276e-03 -1.8132014785701953e-02 0.0000000000000000e+00  -3.8790774842890441e-03 -1.8772593326058885e-02 0.0000000000000000e+00  -3.6226506037028094e-03 -1.9513565404729337e-02 0.0000000000000000e+00  -3.2452577265633226e-03 -2.0372485557834712e-02 0.0000000000000000e+00  -2.7073735889904045e-03 -2.1332245853695853e-02 0.0000000000000000e+00  -1.9688008838622687e-03 -2.2290307078033603e-02 0.0000000000000000e+00  -1.0455536832365310e-03 -2.3039465496542958e-02 0.0000000000000000e+00  0.0000000000000000e+00 -2.2265222295626604e-02 0.0000000000000000e+00  0.0000000000000000e+00 -2.1264964270103864e-02 0.0000000000000000e+00  0.0000000000000000e+00 -2.0381082825455681e-02 0.0000000000000000e+00  0.0000000000000000e+00 -1.9633731213033065e-02 0.0000000000000000e+00  0.0000000000000000e+00 -1.9013109713931182e-02 0.0000000000000000e+00  0.0000000000000000e+00 -1.8495275552705175e-02 0.0000000000000000e+00  0.0000000000000000e+00 -1.8057002809487500e-02 0.0000000000000000e+00  0.0000000000000000e+00 -1.7679306741988119e-02 0.0000000000000000e+00  0.0000000000000000e+00 -1.7347527974655771e-02 0.0000000000000000e+00  0.0000000000000000e+00 -1.7050220245671377e-02 0.0000000000000000e+00  0.0000000000000000e+00 -1.6777716816556976e-02 0.0000000000000000e+00  0.0000000000000000e+00 -1.6521322055940042e-02 0.0000000000000000e+00  0.0000000000000000e+00 -1.6272953851075904e-02 0.0000000000000000e+00  0.0000000000000000e+00 -1.6024060836186703e-02 0.0000000000000000e+00  0.0000000000000000e+00 -1.5766149100100539e-02 0.0000000000000000e+00  0.0000000000000000e+00 -1.5488919815365397e-02 0.0000000000000000e+00  0.0000000000000000e+00 -1.5181114326351084e-02 0.0000000000000000e+00  0.0000000000000000e+00 -1.4829380252503663e-02 0.0000000000000000e+00  0.0000000000000000e+00 -1.4417420202535601e-02 0.0000000000000000e+00  0.0000000000000000e+00 -1.3925921594717085e-02 0.0000000000000000e+00  0.0000000000000000e+00 -1.3331371313911230e-02 0.0000000000000000e+00  0.0000000000000000e+00 -1.2604419016283950e-02 0.0000000000000000e+00  0.0000000000000000e+00 -1.1709967159071437e-02 0.0000000000000000e+00  0.0000000000000000e+00 -1.0604677749948554e-02 0.0000000000000000e+00  0.0000000000000000e+00 -9.2350142510250234e-03 0.0000000000000000e+00  0.0000000000000000e+00 -7.5403440250656883e-03 0.0000000000000000e+00  0.0000000000000000e+00 -5.4443910228525278e-03 0.0000000000000000e+00  0.0000000000000000e+00 -2.8611595937286915e-03 0.0000000000000000e+00  0.0000000000000000e+00 3.0201850248268234e-04 0.0000000000000000e+00  0.0000000000000000e+00 4.1449458252949926e-03 0.0000000000000000e+00  0.0000000000000000e+00 8.7599303146583731e-03 0.0000000000000000e+00  0.0000000000000000e+00 1.4207051469963006e-02 0.0000000000000000e+00  0.0000000000000000e+00 2.0496910974305442e-02 0.0000000000000000e+00  0.0000000000000000e+00 2.7548865988310758e-02 0.0000000000000000e+00  0.0000000000000000e+00 3.5139354303251366e-02 0.0000000000000000e+00  0.0000000000000000e+00 4.2882601552529195e-02 0.0000000000000000e+00  0.0000000000000000e+00 5.0212634765669506e-02 0.0000000000000000e+00  0.0000000000000000e+00 5.6459058252888709e-02 0.0000000000000000e+00  0.0000000000000000e+00 6.0901236569197485e-02 0.0000000000000000e+00  0.0000000000000000e+00 6.2980013308641725e-02 0.0000000000000000e+00  0.0000000000000000e+00 6.2402329930363813e-02 0.0000000000000000e+00  0.0000000000000000e+00 5.9235935588564562e-02 0.0000000000000000e+00  0.0000000000000000e+00 5.3893675193696894e-02 0.0000000000000000e+00  0.0000000000000000e+00 4.7021064584392987e-02 0.0000000000000000e+00  0.0000000000000000e+00 3.9338694059957720e-02 0.0000000000000000e+00  0.0000000000000000e+00 3.1496574432150683e-02 0.0000000000000000e+00  0.0000000000000000e+00 2.4006334399053274e-02 0.0000000000000000e+00  0.0000000000000000e+00 1.7184248079540825e-02 0.0000000000000000e+00  0.0000000000000000e+00 1.1197504482687718e-02 0.0000000000000000e+00  0.0000000000000000e+00 6.0805759728547303e-03 0.0000000000000000e+00  0.0000000000000000e+00 1.7977939005288173e-03 0.0000000000000000e+00  0.0000000000000000e+00 -1.7362025750789871e-03 0.0000000000000000e+00  0.0000000000000000e+00 -4.6205013951193755e-03 0.0000000000000000e+00  0.0000000000000000e+00 -6.9583275100495176e-03 0.0000000000000000e+00  0.0000000000000000e+00 -8.8432125002782056e-03 0.0000000000000000e+00  0.0000000000000000e+00 -1.0358456413281526e-02 0.0000000000000000e+00  0.0000000000000000e+00 -1.1576042209598712e-02 0.0000000000000000e+00  0.0000000000000000e+00 -1.2554835381980401e-02 0.0000000000000000e+00  0.0000000000000000e+00 -1.3344435374127337e-02 0.0000000000000000e+00  0.0000000000000000e+00 -1.3984996925593744e-02 0.0000000000000000e+00  0.0000000000000000e+00 -1.4509208583602200e-02 0.0000000000000000e+00  0.0000000000000000e+00 -1.4943726242117206e-02 0.0000000000000000e+00  0.0000000000000000e+00 -1.5310084380080085e-02 0.0000000000000000e+00  0.0000000000000000e+00 -1.5626316826939379e-02 0.0000000000000000e+00  0.0000000000000000e+00 -1.5907226183672327e-02 0.0000000000000000e+00  0.0000000000000000e+00 -1.6164974053113693e-02 0.0000000000000000e+00  0.0000000000000000e+00 -1.6410172514029129e-02 0.0000000000000000e+00  0.0000000000000000e+00 -1.6652577812332623e-02 0.0000000000000000e+00  0.0000000000000000e+00 -1.6900455827358683e-02 0.0000000000000000e+00  0.0000000000000000e+00 -1.7161937478947877e-02 0.0000000000000000e+00  0.0000000000000000e+00 -1.7445630567174707e-02 0.0000000000000000e+00  0.0000000000000000e+00 -1.7760669809139214e-02 0.0000000000000000e+00  0.0000000000000000e+00 -1.8117726945295398e-02 0.0000000000000000e+00  0.0000000000000000e+00 -1.8529902608584146e-02 0.0000000000000000e+00  0.0000000000000000e+00 -1.9014326666183499e-02 0.0000000000000000e+00  0.0000000000000000e+00 -1.9592904073728473e-02 0.0000000000000000e+00  0.0000000000000000e+00 -2.0287972271806225e-02 0.0000000000000000e+00  0.0000000000000000e+00 -2.1116426842438495e-02 0.0000000000000000e+00  0.0000000000000000e+00 -2.2066157634869025e-02 0.0000000000000000e+00  1.0114414774565613e-03 -2.2833919834696507e-02 0.0000000000000000e+00  1.9091973414355882e-03 -2.2166057560814446e-02 0.0000000000000000e+00  2.6277771401761012e-03 -2.1299010632426424e-02 0.0000000000000000e+00  3.1603577991019581e-03 -2.0415804779140009e-02 0.0000000000000000e+00  3.5372748588337094e-03 -1.9609185569110239e-02 0.0000000000000000e+00  3.7965590863896729e-03 -1.8900646177786862e-02 0.0000000000000000e+00  3.9739290636264472e-03 -1.8278558739435440e-02 0.0000000000000000e+00  4.0941630711993048e-03 -1.7722624424360959e-02 0.0000000000000000e+00  4.1745599481624830e-03 -1.7214095559939632e-02 0.0000000000000000e+00  4.2264618670538739e-03 -1.6738567927109663e-02 0.0000000000000000e+00  4.2560886893171510e-03 -1.6285509198645957e-02 0.0000000000000000e+00  4.2689156901725631e-03 -1.5846982848039013e-02 0.0000000000000000e+00  4.2679650860970959e-03 -1.5417531321485075e-02 0.0000000000000000e+00  4.2554475531742259e-03 -1.4993135431728751e-02 0.0000000000000000e+00  4.2332758295207645e-03 -1.4570984064795709e-02 0.0000000000000000e+00  4.2023192147747565e-03 -1.4148921923248438e-02 0.0000000000000000e+00  4.1642414357928289e-03 -1.3725519762257598e-02 0.0000000000000000e+00  4.1196858121794414e-03 -1.3299898117966781e-02 0.0000000000000000e+00  4.0694443619157666e-03 -1.2871400900424147e-02 0.0000000000000000e+00  4.0145399714632771e-03 -1.2439840243642314e-02 0.0000000000000000e+00  3.9549337818544847e-03 -1.2005095019119852e-02 0.0000000000000000e+00  3.8918576976959920e-03 -1.1567262807450011e-02 0.0000000000000000e+00  3.8254069863195069e-03 -1.1126577874378929e-02 0.0000000000000000e+00  3.7561005068205517e-03 -1.0683290405357457e-02 0.0000000000000000e+00  3.6845734150113712e-03 -1.0237698619852640e-02 0.0000000000000000e+00  3.6105699500496927e-03 -9.7901072933498628e-03 0.0000000000000000e+00  3.5348387679309959e-03 -9.3407497772053025e-03 0.0000000000000000e+00  3.4575585258976847e-03 -8.8898555291420656e-03 0.0000000000000000e+00  3.3788483595851566e-03 -8.4376705361412490e-03 0.0000000000000000e+00  3.2989630987959157e-03 -7.9841827216499909e-03 0.0000000000000000e+00  3.2179024950655050e-03 -7.5295309957480166e-03 0.0000000000000000e+00  3.1363613776018732e-03 -7.0736475846001822e-03 0.0000000000000000e+00  3.0538810052124919e-03 -6.6167189279452308e-03 0.0000000000000000e+00  2.9715470721043153e-03 -6.1594771514301263e-03 0.0000000000000000e+00  2.8895434798104119e-03 -5.7044405813710753e-03 0.0000000000000000e+00  2.8094626287380972e-03 -5.2588593782313658e-03 0.0000000000000000e+00  2.7338376610214809e-03 -4.8410307949414135e-03 0.0000000000000000e+00  2.6655208865253195e-03 -4.4865756198766045e-03 0.0000000000000000e+00  2.6131179665885630e-03 -4.2493461994858569e-03 0.0000000000000000e+00  2.4604826101182293e-03 -4.2052119361138127e-03 0.0000000000000000e+00  2.1628368731511473e-03 -4.2633784263398514e-03 0.0000000000000000e+00  1.7644523456002298e-03 -4.3425141627259061e-03 0.0000000000000000e+00  1.3223168200758907e-03 -4.4363762134261254e-03 0.0000000000000000e+00  8.6883520793723480e-04 -4.5410039034758324e-03 0.0000000000000000e+00  4.1876884208063685e-04 -4.6532852976039407e-03 0.0000000000000000e+00  -2.2599527540518798e-05 -4.7722662651768777e-03 0.0000000000000000e+00  -4.5360481700440220e-04 -4.8959874385679624e-03 0.0000000000000000e+00  -8.7335549153890379e-04 -5.0242298103522296e-03 0.0000000000000000e+00  -1.2811946429381984e-03 -5.1559626360002811e-03 0.0000000000000000e+00  -1.6760920513042182e-03 -5.2917016552681845e-03 0.0000000000000000e+00  -2.0570514594476846e-03 -5.4301916709288542e-03 0.0000000000000000e+00  -2.4226227317583641e-03 -5.5713860233432425e-03 0.0000000000000000e+00  -2.7712384124662917e-03 -5.7146795649907359e-03 0.0000000000000000e+00  -3.1010418764450399e-03 -5.8601410100234648e-03 0.0000000000000000e+00  -3.4102150571489447e-03 -6.0066537798333227e-03 0.0000000000000000e+00  -3.6965333930878124e-03 -6.1539205683166006e-03 0.0000000000000000e+00  -3.9577573721305314e-03 -6.3012811570369561e-03 0.0000000000000000e+00  -4.1913903508670330e-03 -6.4480552268132716e-03 0.0000000000000000e+00  -4.3949203987013420e-03 -6.5934417026621683e-03 0.0000000000000000e+00  -4.5656780389372424e-03 -6.7368697327789655e-03 0.0000000000000000e+00  -4.7008920653403416e-03 -6.8774241509567801e-03 0.0000000000000000e+00  -4.7980666432048706e-03 -7.0141708074177222e-03 0.0000000000000000e+00  -4.8543934779566762e-03 -7.1465626527932001e-03 0.0000000000000000e+00  -4.8675582955495381e-03 -7.2737405744655852e-03 0.0000000000000000e+00  -4.8353749046526782e-03 -7.3948915067723010e-03 0.0000000000000000e+00  -4.7559184650422803e-03 -7.5093981644067517e-03 0.0000000000000000e+00  -4.6280369567149983e-03 -7.6166105614076628e-03 0.0000000000000000e+00  -4.4504514659334969e-03 -7.7161537907351084e-03 0.0000000000000000e+00  -4.2233723805570594e-03 -7.8074860829105280e-03 0.0000000000000000e+00  -3.9473400220372771e-03 -7.8904069994754755e-03 0.0000000000000000e+00  -3.6236527974425905e-03 -7.9647535720500286e-03 0.0000000000000000e+00  -3.2548573970040116e-03 -8.0304073078905532e-03 0.0000000000000000e+00  -2.8439593181964714e-03 -8.0872201915957540e-03 0.0000000000000000e+00  -2.3953586662811342e-03 -8.1355134640400447e-03 0.0000000000000000e+00  -1.9141123284932354e-03 -8.1751809182269968e-03 0.0000000000000000e+00  -1.4061195284399027e-03 -8.2064186883682964e-03 0.0000000000000000e+00  -8.7806210471586183e-04 -8.2293120160296818e-03 0.0000000000000000e+00  -3.3694933988070498e-04 -8.2437242651310794e-03 0.0000000000000000e+00  2.0968224807621852e-04 -8.2498708523429318e-03 0.0000000000000000e+00  7.5416471876709574e-04 -8.2475298166681532e-03 0.0000000000000000e+00  1.2888143235093683e-03 -8.2366586610790622e-03 0.0000000000000000e+00  1.8063323915799940e-03 -8.2169895051143142e-03 0.0000000000000000e+00  2.2999294029779410e-03 -8.1887005491771050e-03 0.0000000000000000e+00  2.7630015118207648e-03 -8.1506999268167717e-03 0.0000000000000000e+00  3.1906927017733462e-03 -8.1038645662815205e-03 0.0000000000000000e+00  3.5777470341313497e-03 -8.0473601660799518e-03 0.0000000000000000e+00  3.9208495102928068e-03 -7.9814620638309179e-03 0.0000000000000000e+00  4.2170941274401533e-03 -7.9060338616491650e-03 0.0000000000000000e+00  4.4648129034821982e-03 -7.8214231793161549e-03 0.0000000000000000e+00  4.6628393425003720e-03 -7.7278322940780549e-03 0.0000000000000000e+00  4.8112858063466910e-03 -7.6256569248654088e-03 0.0000000000000000e+00  4.9105843340238311e-03 -7.5153397533160469e-03 0.0000000000000000e+00  4.9620607717579092e-03 -7.3976989720305822e-03 0.0000000000000000e+00  4.9674995899179767e-03 -7.2733613674319016e-03 0.0000000000000000e+00  4.9287465295469977e-03 -7.1429931330767452e-03 0.0000000000000000e+00  4.8484575468193116e-03 -7.0076356030588710e-03 0.0000000000000000e+00  4.7291318548048729e-03 -6.8680031607909631e-03 0.0000000000000000e+00  4.5734987697414221e-03 -6.7249815262554122e-03 0.0000000000000000e+00  4.3843104378770703e-03 -6.5794333148466097e-03 0.0000000000000000e+00  4.1642207991232959e-03 -6.4321874648252623e-03 0.0000000000000000e+00  3.9158947029062051e-03 -6.2839279297003982e-03 0.0000000000000000e+00  3.6418753032703517e-03 -6.1355080452488763e-03 0.0000000000000000e+00  3.3446118622404608e-03 -5.9873562670400959e-03 0.0000000000000000e+00  3.0262274166044981e-03 -5.8404164719062348e-03 0.0000000000000000e+00  2.6888308269565450e-03 -5.6950476374651631e-03 0.0000000000000000e+00  2.3343162148640674e-03 -5.5516709940690943e-03 0.0000000000000000e+00  1.9643307558568604e-03 -5.4109233603523918e-03 0.0000000000000000e+00  1.5804565416230357e-03 -5.2729315354759056e-03 0.0000000000000000e+00  1.1839019872278904e-03 -5.1383227094523578e-03 0.0000000000000000e+00  7.7581467902911462e-04 -5.0071499730847445e-03 0.0000000000000000e+00  3.5706409049164194e-04 -4.8801238780913254e-03 0.0000000000000000e+00  -7.1606093515741597e-05 -4.7574667315491374e-03 0.0000000000000000e+00  -5.0937179341195799e-04 -4.6399868179535968e-03 0.0000000000000000e+00  -9.5428131837902537e-04 -4.5287184777189574e-03 0.0000000000000000e+00  -1.4006248844090536e-03 -4.4253958237081099e-03 0.0000000000000000e+00  -1.8328463065884766e-03 -4.3323462820379910e-03 0.0000000000000000e+00  -2.2181864595738512e-03 -4.2546860623493788e-03 0.0000000000000000e+00  -2.5025221741623465e-03 -4.1969850763487696e-03 0.0000000000000000e+00  -1.1153931853159028e-02 -1.2918800951646374e-02 0.0000000000000000e+00  5.0002731933169323e-03 -1.5996122348409518e-02 0.0000000000000000e+00  -2.2423284274879943e-03 -1.2608107266786177e-02 0.0000000000000000e+00  1.0451118198891852e-03 -1.0514726086171591e-02 0.0000000000000000e+00  -8.4757748871834289e-04 -1.5703862424345252e-02 0.0000000000000000e+00  4.2017086910896397e-03 -6.0633875444639190e-02 0.0000000000000000e+00  4.5907114734232545e-03 -6.7151756182350078e-03 0.0000000000000000e+00  1.8647389881153696e-04 -2.1100419930870057e-02 0.0000000000000000e+00  1.2040102009807769e-03 -1.6037832831503791e-02 0.0000000000000000e+00  -5.2398365042385974e-03 -9.2062428300983840e-03 0.0000000000000000e+00  -2.2773686036961769e-03 -1.8937801374774348e-02 0.0000000000000000e+00  4.3034687089222945e-03 -9.4806693601437488e-03 0.0000000000000000e+00  3.0923960831775562e-02 -7.2146748521019613e-02 0.0000000000000000e+00  -1.5174200066529926e-04 -8.7616883805105000e-03 0.0000000000000000e+00  -2.5391869759953914e-03 -6.4316647696508042e-03 0.0000000000000000e+00  1.2124860598149519e-03 -1.3075977278173150e-02 0.0000000000000000e+00  -3.2904899542233724e-03 -8.7708866404693914e-03 0.0000000000000000e+00  -1.4546221555425808e-03 -1.2969839917663518e-02 0.0000000000000000e+00  -6.0396474977301847e-03 -1.5319174329972362e-02 0.0000000000000000e+00  -6.0921410464517519e-04 -7.5819956776633579e-03 0.0000000000000000e+00  -2.0499216138067313e-03 -1.6813146046876302e-02 0.0000000000000000e+00  5.4970835551362042e-03 -8.2311979262540049e-03 0.0000000000000000e+00  1.5510579498100897e-03 -1.4152897272357462e-02 0.0000000000000000e+00  -1.6613606180076446e-02 -2.2691461533435254e-02 0.0000000000000000e+00  4.5743603955249084e-03 -7.9120337949436601e-03 0.0000000000000000e+00  1.5267500479843876e-03 -1.6746137295587542e-02 0.0000000000000000e+00  1.0516912478982855e-02 -1.8393738212885896e-02 0.0000000000000000e+00  1.3042281235704421e-02 -2.0577414445965229e-02 0.0000000000000000e+00  -9.5017393659670732e-04 -1.6117118441480918e-02 0.0000000000000000e+00  -1.3077510267207894e-03 -1.6314607671030185e-02 0.0000000000000000e+00  2.6836248035606780e-03 -8.0505332520277514e-03 0.0000000000000000e+00  -2.8667452750525308e-02 -1.4838028577916185e-02 0.0000000000000000e+00  6.4949756739543403e-03 -1.0675506224057866e-02 0.0000000000000000e+00  2.0110714306451091e-03 -1.7193993238009169e-02 0.0000000000000000e+00  1.4064551718250648e-03 -6.7901707606053815e-03 0.0000000000000000e+00  -6.3631377106987720e-03 -3.0070524556203512e-02 0.0000000000000000e+00  1.1714225901709372e-03 -2.6149419023195460e-02 0.0000000000000000e+00  -1.7457368211342202e-03 -1.0252154605729289e-02 0.0000000000000000e+00  -2.6097197190111999e-03 -1.4987116507812717e-02 0.0000000000000000e+00  -4.