<?xml version="1.0"?>
<VTKFile type="UnstructuredGrid"  version="0.1"  >
<UnstructuredGrid>
<Piece  NumberOfPoints="4372" NumberOfCells="8502">
<Points>
<DataArray  type="Float64"  NumberOfComponents="3"  format="ascii">-2 2 0  0 2 0  0 -2 0  -2 -2 0  -1.949999999999792 2 0  -1.899999999999584 2 0  -1.849999999999375 2 0  -1.799999999999167 2 0  -1.749999999999002 2 0  -1.699999999999306 2 0  -1.649999999999653 2 0  -1.6 2 0  -1.550000000000346 2 0  -1.500000000000693 2 0  -1.45000000000104 2 0  -1.400000000001387 2 0  -1.350000000001733 2 0  -1.30000000000208 2 0  -1.250000000002427 2 0  -1.200000000002774 2 0  -1.150000000003121 2 0  -1.100000000003467 2 0  -1.050000000003814 2 0  -1.000000000004117 2 0  -0.9500000000039528 2 0  -0.9000000000037447 2 0  -0.8500000000035368 2 0  -0.8000000000033287 2 0  -0.7500000000031206 2 0  -0.7000000000029127 2 0  -0.6500000000027044 2 0  -0.6000000000024965 2 0  -0.5500000000022884 2 0  -0.5000000000020806 2 0  -0.4500000000018725 2 0  -0.4000000000016644 2 0  -0.3500000000014563 2 0  -0.3000000000012482 2 0  -0.2500000000010403 2 0  -0.200000000000832 2 0  -0.1500000000006243 2 0  -0.100000000000416 2 0  -0.0500000000002081 2 0  0 1.950000000000139 0  0 1.900000000000277 0  0 1.850000000000416 0  0 1.800000000000555 0  0 1.750000000000693 0  0 1.700000000000832 0  0 1.650000000000971 0  0 1.60000000000111 0  0 1.550000000001248 0  0 1.500000000001387 0  0 1.450000000001526 0  0 1.400000000001664 0  0 1.350000000001803 0  0 1.300000000001942 0  0 1.250000000002081 0  0 1.200000000002219 0  0 1.150000000002358 0  0 1.100000000002496 0  0 1.050000000002635 0  0 1.000000000002774 0  0 0.9500000000029125 0  0 0.9000000000030515 0  0 0.8500000000031902 0  0 0.8000000000033287 0  0 0.7500000000034674 0  0 0.7000000000036062 0  0 0.6500000000037449 0  0 0.6000000000038836 0  0 0.5500000000040224 0  0 0.5000000000041611 0  0 0.4500000000042998 0  0 0.4000000000044384 0  0 0.3500000000045771 0  0 0.3000000000047156 0  0 0.2500000000048543 0  0 0.2000000000049929 0  0 0.1500000000051318 0  0 0.1000000000052705 0  0 0.05000000000540905 0  0 5.504485756091526e-12 0  0 -0.04999999999459082 0  0 -0.09999999999472964 0  0 -0.149999999994868 0  0 -0.1999999999950068 0  0 -0.2499999999951457 0  0 -0.299999999995284 0  0 -0.3499999999954229 0  0 -0.3999999999955617 0  0 -0.4499999999957001 0  0 -0.4999999999958389 0  0 -0.5499999999959777 0  0 -0.5999999999961165 0  0 -0.6499999999962549 0  0 -0.6999999999963937 0  0 -0.7499999999965326 0  0 -0.7999999999966709 0  0 -0.8499999999968098 0  0 -0.8999999999969486 0  0 -0.949999999997087 0  0 -0.9999999999972258 0  0 -1.049999999997365 0  0 -1.099999999997503 0  0 -1.149999999997642 0  0 -1.199999999997781 0  0 -1.249999999997919 0  0 -1.299999999998058 0  0 -1.349999999998198 0  0 -1.399999999998336 0  0 -1.449999999998474 0  0 -1.499999999998613 0  0 -1.549999999998751 0  0 -1.599999999998891 0  0 -1.64999999999903 0  0 -1.699999999999168 0  0 -1.749999999999306 0  0 -1.799999999999445 0  0 -1.849999999999584 0  0 -1.899999999999723 0  0 -1.949999999999862 0  -0.04999999999990573 -2 0  -0.0999999999997993 -2 0  -0.1499999999997056 -2 0  -0.1999999999996293 -2 0  -0.2499999999995475 -2 0  -0.2999999999994072 -2 0  -0.3499999999992615 -2 0  -0.3999999999991157 -2 0  -0.44999999999897 -2 0  -0.4999999999988242 -2 0  -0.5499999999986784 -2 0  -0.5999999999985328 -2 0  -0.649999999998387 -2 0  -0.6999999999982413 -2 0  -0.7499999999980955 -2 0  -0.7999999999979498 -2 0  -0.8499999999978042 -2 0  -0.8999999999976585 -2 0  -0.9499999999975127 -2 0  -0.9999999999973885 -2 0  -1.049999999997498 -2 0  -1.09999999999763 -2 0  -1.149999999997762 -2 0  -1.199999999997894 -2 0  -1.249999999998025 -2 0  -1.299999999998157 -2 0  -1.349999999998289 -2 0  -1.39999999999842 -2 0  -1.449999999998552 -2 0  -1.499999999998683 -2 0  -1.549999999998815 -2 0  -1.599999999998947 -2 0  -1.649999999999078 -2 0  -1.69999999999921 -2 0  -1.749999999999342 -2 0  -1.799999999999474 -2 0  -1.849999999999605 -2 0  -1.899999999999737 -2 0  -1.949999999999869 -2 0  -2 -1.950000000000139 0  -2 -1.900000000000277 0  -2 -1.850000000000416 0  -2 -1.800000000000555 0  -2 -1.750000000000693 0  -2 -1.700000000000832 0  -2 -1.650000000000971 0  -2 -1.60000000000111 0  -2 -1.550000000001248 0  -2 -1.500000000001387 0  -2 -1.450000000001526 0  -2 -1.400000000001664 0  -2 -1.350000000001803 0  -2 -1.300000000001942 0  -2 -1.250000000002081 0  -2 -1.200000000002219 0  -2 -1.150000000002358 0  -2 -1.100000000002496 0  -2 -1.050000000002635 0  -2 -1.000000000002774 0  -2 -0.9500000000029125 0  -2 -0.9000000000030515 0  -2 -0.8500000000031902 0  -2 -0.8000000000033287 0  -2 -0.7500000000034674 0  -2 -0.7000000000036062 0  -2 -0.6500000000037449 0  -2 -0.6000000000038836 0  -2 -0.5500000000040224 0  -2 -0.5000000000041611 0  -2 -0.4500000000042998 0  -2 -0.4000000000044384 0  -2 -0.3500000000045771 0  -2 -0.3000000000047156 0  -2 -0.2500000000048543 0  -2 -0.2000000000049929 0  -2 -0.1500000000051318 0  -2 -0.1000000000052705 0  -2 -0.05000000000540905 0  -2 -5.504485756091526e-12 0  -2 0.04999999999459082 0  -2 0.09999999999472964 0  -2 0.149999999994868 0  -2 0.1999999999950068 0  -2 0.2499999999951457 0  -2 0.299999999995284 0  -2 0.3499999999954229 0  -2 0.3999999999955617 0  -2 0.4499999999957001 0  -2 0.4999999999958389 0  -2 0.5499999999959777 0  -2 0.5999999999961165 0  -2 0.6499999999962549 0  -2 0.6999999999963937 0  -2 0.7499999999965326 0  -2 0.7999999999966709 0  -2 0.8499999999968098 0  -2 0.8999999999969486 0  -2 0.949999999997087 0  -2 0.9999999999972258 0  -2 1.049999999997365 0  -2 1.099999999997503 0  -2 1.149999999997642 0  -2 1.199999999997781 0  -2 1.249999999997919 0  -2 1.299999999998058 0  -2 1.349999999998198 0  -2 1.399999999998336 0  -2 1.449999999998474 0  -2 1.499999999998613 0  -2 1.549999999998751 0  -2 1.599999999998891 0  -2 1.64999999999903 0  -2 1.699999999999168 0  -2 1.749999999999306 0  -2 1.799999999999445 0  -2 1.849999999999584 0  -2 1.899999999999723 0  -2 1.949999999999862 0  -0.9991019297010011 -0.3216894116769606 0  -1.001123860021573 0.7747860510049681 0  -1.157001840564423 -1.161067247012082 0  -1.338027560051535 1.335779534439809 0  -0.6597222222209854 1.340277777778947 0  -0.6585505322915344 0.2210104638722434 0  -1.342670381551713 0.2273264508688188 0  -0.6282204758073073 -0.8120080430170664 0  -0.584236517600881 -1.424312893620663 0  -1.444216308265114 -0.6762220291217811 0  -0.5052068177397626 0.8617966625436217 0  -1.495725541732084 0.8726406067560636 0  -0.5012956875285356 -0.2537377131698332 0  -1.505964779037762 -1.506864731248248 0  -1.533439101629034 -0.2141932377592857 0  -0.9980909254944228 -1.563025322244478 0  -1.573871097078973 -1.076090339205781 0  -0.9938363905916023 1.574658399668859 0  -1.034823301857025 -0.7463046737786232 0  -1.613643420611705 1.613643420611667 0  -0.3789826634893113 1.622833641383097 0  -0.9969623469406674 0.06224895986291776 0  -0.9977570821219073 1.152964911765466 0  -0.3827586671415756 0.4981078379584384 0  -1.617241332858342 0.4981078379584687 0  -0.3735162279179589 -1.10055932464888 0  -0.9514697352838486 0.4195344991084976 0  -0.3671724871528862 -0.5890291676826473 0  -0.8024708669961921 -1.130631989953667 0  -0.3498086031259764 1.176326426441 0  -1.654591699695181 1.175475929606857 0  -0.3418462529951587 0.05839036814553086 0  -1.276352049535552 0.5646214960700082 0  -0.3455726757630372 -1.654274000872155 0  -1.662000930981631 0.09800841401402562 0  -0.7326605900058469 -0.5029780286614124 0  -0.6815317218188973 0.6015493889244842 0  -1.294915051768271 1.68349586060536 0  -0.6978609120161386 1.682418596511037 0  -1.69042813419972 -0.4820149800903958 0  -0.7177378365368432 -1.691938564923942 0  -1.295041566734205 -0.3964989221993158 0  -1.257425593209587 -1.693594420665469 0  -1.246383246782414 -0.1148360514526407 0  -0.7362449271051545 -0.05964032805167522 0  -1.707983706106591 -0.8099422821034401 0  -0.7716224277305496 0.9720234774828133 0  -1.275827556233888 1.059370830779667 0  -1.709731219610966 -1.713515019749574 0  -0.283604077223767 -1.378462113197051 0  -1.331628086330126 -0.9256871504417986 0  -1.718803648671523 -1.313287096736098 0  -1.237157326776588 -1.417624750871973 0  -0.2754377852160807 -0.8405670548436512 0  -0.2604914310470714 0.745077019249353 0  -1.729633983752603 0.7365041208839631 0  -0.2591591556650803 -0.3445128723686334 0  -0.2497705497594995 0.2862378673199174 0  -0.2571319926197782 1.401471300128245 0  -1.750457518478978 1.404891698644917 0  -0.8313391195977098 -1.383947161511035 0  -1.24247470005791 0.8083576983762071 0  -1.75762809210058 -0.121394575294928 0  -1.436009639427774 -1.277692839795198 0  -0.9951285024698884 -0.9801850598617781 0  -0.5860531098993602 1.102916873865959 0  -1.107154037528234 1.367740498542844 0  -1.765353655027761 0.3139359895551974 0  -0.239693234576285 0.9675382248711792 0  -1.762311524625569 0.9715314837693784 0  -1.453060458314344 0.01668426334404738 0  -1.118216683883963 0.2510494134873997 0  -1.487314750788142 -1.768895281943666 0  -0.775695807447912 -0.2851187916602083 0  -1.775021992875828 1.773058151300929 0  -0.2244440016626344 1.771853493176412 0  -0.8797519944267721 1.389822301404418 0  -1.220958717521525 -0.6178523500889427 0  -0.59343770640056 -1.180817576357191 0  -0.9262618789157869 -1.776942446977449 0  -0.2205428235968764 -0.1260615883490472 0  -1.10972339161439 1.777127575560661 0  -0.9394997616645768 -0.5365790009321401 0  -0.812081892264416 -0.7153463049796221 0  -1.783917055200667 -1.008716696077253 0  -0.515263853692324 -1.788606832309386 0  -0.8883686379713935 1.780240085569055 0  -1.545545177082075 0.2916466799431231 0  -1.490071498349099 1.777107893879804 0  -0.5133806951054479 1.777756514587614 0  -1.042544744196485 -1.335739934857762 0  -0.8641039527440014 0.2249999999994 0  -1.475046450324973 0.6546028915744984 0  -1.529677928948796 1.412892352790367 0  -0.4613578028330296 1.41527900122371 0  -1.790928681625402 -1.
[...]
<PointData  Vectors="f_31-0"> 
<DataArray  type="Float64"  Name="f_31-0"  NumberOfComponents="3" format="ascii">-2.8246593815786890e-03 -3.8068481382785720e-03 0.0000000000000000e+00  0.0000000000000000e+00 -2.4829660490030839e-02 0.0000000000000000e+00  0.0000000000000000e+00 -2.4633193990577444e-02 0.0000000000000000e+00  2.8142367327830100e-03 -3.8089086203162707e-03 0.0000000000000000e+00  -2.8601511434955484e-03 -3.9390553810265284e-03 0.0000000000000000e+00  -2.9253103703986132e-03 -4.2886592016283124e-03 0.0000000000000000e+00  -3.0034930765862082e-03 -4.7241543009322907e-03 0.0000000000000000e+00  -3.0855174987596966e-03 -5.1813672132564170e-03 0.0000000000000000e+00  -3.1692175601117875e-03 -5.6422829586935267e-03 0.0000000000000000e+00  -3.2527328145545370e-03 -6.1012414783005488e-03 0.0000000000000000e+00  -3.3363099256131208e-03 -6.5583243455171929e-03 0.0000000000000000e+00  -3.4194144037373582e-03 -7.0133817555915728e-03 0.0000000000000000e+00  -3.5020859483042796e-03 -7.4665489154258392e-03 0.0000000000000000e+00  -3.5837986371344221e-03 -7.9182498200930148e-03 0.0000000000000000e+00  -3.6647045526591654e-03 -8.3687180983784831e-03 0.0000000000000000e+00  -3.7440411227720122e-03 -8.8176802440231190e-03 0.0000000000000000e+00  -3.8221266095902046e-03 -9.2651304476251591e-03 0.0000000000000000e+00  -3.8988522829671705e-03 -9.7110747830605314e-03 0.0000000000000000e+00  -3.9729731730742098e-03 -1.0155087418712126e-02 0.0000000000000000e+00  -4.0451225810917866e-03 -1.0597085519390072e-02 0.0000000000000000e+00  -4.1150806084568389e-03 -1.1036874784427431e-02 0.0000000000000000e+00  -4.1815369565744729e-03 -1.1473628440573666e-02 0.0000000000000000e+00  -4.2448485572249483e-03 -1.1907639102145717e-02 0.0000000000000000e+00  -4.3041350719568204e-03 -1.2338550290271030e-02 0.0000000000000000e+00  -4.3593403338997401e-03 -1.2765981943353218e-02 0.0000000000000000e+00  -4.4099085784976913e-03 -1.3190047833402087e-02 0.0000000000000000e+00  -4.4552632492315227e-03 -1.3611033480898552e-02 0.0000000000000000e+00  -4.4942415691804922e-03 -1.4029198825653011e-02 0.0000000000000000e+00  -4.5273902584753167e-03 -1.4445585327411508e-02 0.0000000000000000e+00  -4.5533656401166214e-03 -1.4861484391757093e-02 0.0000000000000000e+00  -4.5711977007786703e-03 -1.5278140640547893e-02 0.0000000000000000e+00  -4.5804223816539877e-03 -1.5698255802535744e-02 0.0000000000000000e+00  -4.5800497842384789e-03 -1.6125431583434005e-02 0.0000000000000000e+00  -4.5680003639118694e-03 -1.6563975528481101e-02 0.0000000000000000e+00  -4.5427539303931593e-03 -1.7020139049414403e-02 0.0000000000000000e+00  -4.5008635154121217e-03 -1.7503537811870376e-02 0.0000000000000000e+00  -4.4368010968936370e-03 -1.8027974018659489e-02 0.0000000000000000e+00  -4.3406305691632303e-03 -1.8613994636337349e-02 0.0000000000000000e+00  -4.1944304214231948e-03 -1.9295750525731150e-02 0.0000000000000000e+00  -3.9578622056451037e-03 -2.0129384571028305e-02 0.0000000000000000e+00  -3.5586280124443111e-03 -2.1195507694443668e-02 0.0000000000000000e+00  -2.8498073462513902e-03 -2.2563648222957318e-02 0.0000000000000000e+00  -1.6708035523191383e-03 -2.4060092676893619e-02 0.0000000000000000e+00  0.0000000000000000e+00 -2.3077304295094112e-02 0.0000000000000000e+00  0.0000000000000000e+00 -2.1642949734171045e-02 0.0000000000000000e+00  0.0000000000000000e+00 -2.0556944132152196e-02 0.0000000000000000e+00  0.0000000000000000e+00 -1.9732408781889983e-02 0.0000000000000000e+00  0.0000000000000000e+00 -1.9083651940672422e-02 0.0000000000000000e+00  0.0000000000000000e+00 -1.8555155156207415e-02 0.0000000000000000e+00  0.0000000000000000e+00 -1.8111667096549097e-02 0.0000000000000000e+00  0.0000000000000000e+00 -1.7730915528567832e-02 0.0000000000000000e+00  0.0000000000000000e+00 -1.7396710793763516e-02 0.0000000000000000e+00  0.0000000000000000e+00 -1.7097515601845817e-02 0.0000000000000000e+00  0.0000000000000000e+00 -1.6822989703499377e-02 0.0000000000000000e+00  0.0000000000000000e+00 -1.6564491992027478e-02 0.0000000000000000e+00  0.0000000000000000e+00 -1.6313351392506607e-02 0.0000000000000000e+00  0.0000000000000000e+00 -1.6061026665963703e-02 0.0000000000000000e+00  0.0000000000000000e+00 -1.5798660672910921e-02 0.0000000000000000e+00  0.0000000000000000e+00 -1.5515356787366413e-02 0.0000000000000000e+00  0.0000000000000000e+00 -1.5199788631035990e-02 0.0000000000000000e+00  0.0000000000000000e+00 -1.4837626993820864e-02 0.0000000000000000e+00  0.0000000000000000e+00 -1.4411962902513949e-02 0.0000000000000000e+00  0.0000000000000000e+00 -1.3902348738088044e-02 0.0000000000000000e+00  0.0000000000000000e+00 -1.3284531621228416e-02 0.0000000000000000e+00  0.0000000000000000e+00 -1.2526938739128574e-02 0.0000000000000000e+00  0.0000000000000000e+00 -1.1592477734692156e-02 0.0000000000000000e+00  0.0000000000000000e+00 -1.0435265215668279e-02 0.0000000000000000e+00  0.0000000000000000e+00 -8.9973010085834179e-03 0.0000000000000000e+00  0.0000000000000000e+00 -7.2146309125141481e-03 0.0000000000000000e+00  0.0000000000000000e+00 -5.0054057312989304e-03 0.0000000000000000e+00  0.0000000000000000e+00 -2.2744458135625311e-03 0.0000000000000000e+00  0.0000000000000000e+00 1.0790882086635623e-03 0.0000000000000000e+00  0.0000000000000000e+00 5.1598263068996534e-03 0.0000000000000000e+00  0.0000000000000000e+00 1.0081422969876993e-02 0.0000000000000000e+00  0.0000000000000000e+00 1.5902588625246811e-02 0.0000000000000000e+00  0.0000000000000000e+00 2.2652606027391532e-02 0.0000000000000000e+00  0.0000000000000000e+00 3.0239294832616805e-02 0.0000000000000000e+00  0.0000000000000000e+00 3.8430751639376377e-02 0.0000000000000000e+00  0.0000000000000000e+00 4.6804218416775074e-02 0.0000000000000000e+00  0.0000000000000000e+00 5.4714727007901580e-02 0.0000000000000000e+00  0.0000000000000000e+00 6.1419224193100398e-02 0.0000000000000000e+00  0.0000000000000000e+00 6.6081120369912705e-02 0.0000000000000000e+00  0.0000000000000000e+00 6.8091231353088214e-02 0.0000000000000000e+00  0.0000000000000000e+00 6.7138064786369217e-02 0.0000000000000000e+00  0.0000000000000000e+00 6.3366451004148255e-02 0.0000000000000000e+00  0.0000000000000000e+00 5.7278371292153157e-02 0.0000000000000000e+00  0.0000000000000000e+00 4.9660040617917428e-02 0.0000000000000000e+00  0.0000000000000000e+00 4.1318183012647135e-02 0.0000000000000000e+00  0.0000000000000000e+00 3.2941379746241790e-02 0.0000000000000000e+00  0.0000000000000000e+00 2.5052416561417334e-02 0.0000000000000000e+00  0.0000000000000000e+00 1.7952027097184960e-02 0.0000000000000000e+00  0.0000000000000000e+00 1.1775192674500974e-02 0.0000000000000000e+00  0.0000000000000000e+00 6.5302596765817750e-03 0.0000000000000000e+00  0.0000000000000000e+00 2.1642112802726936e-03 0.0000000000000000e+00  0.0000000000000000e+00 -1.4255957478300713e-03 0.0000000000000000e+00  0.0000000000000000e+00 -4.3485947763095929e-03 0.0000000000000000e+00  0.0000000000000000e+00 -6.7163015889064800e-03 0.0000000000000000e+00  0.0000000000000000e+00 -8.6235195306973520e-03 0.0000000000000000e+00  0.0000000000000000e+00 -1.0157554361996600e-02 0.0000000000000000e+00  0.0000000000000000e+00 -1.1391292540621692e-02 0.0000000000000000e+00  0.0000000000000000e+00 -1.2384003195935538e-02 0.0000000000000000e+00  0.0000000000000000e+00 -1.3187263596559189e-02 0.0000000000000000e+00  0.0000000000000000e+00 -1.3840008945879084e-02 0.0000000000000000e+00  0.0000000000000000e+00 -1.4375987636375091e-02 0.0000000000000000e+00  0.0000000000000000e+00 -1.4821554108598901e-02 0.0000000000000000e+00  0.0000000000000000e+00 -1.5198736072374050e-02 0.0000000000000000e+00  0.0000000000000000e+00 -1.5525276384062541e-02 0.0000000000000000e+00  0.0000000000000000e+00 -1.5816334999613334e-02 0.0000000000000000e+00  0.0000000000000000e+00 -1.6084224365001537e-02 0.0000000000000000e+00  0.0000000000000000e+00 -1.6339063558106205e-02 0.0000000000000000e+00  0.0000000000000000e+00 -1.6592253646756067e-02 0.0000000000000000e+00  0.0000000000000000e+00 -1.6850391678086000e-02 0.0000000000000000e+00  0.0000000000000000e+00 -1.7123776882146152e-02 0.0000000000000000e+00  0.0000000000000000e+00 -1.7420188270373317e-02 0.0000000000000000e+00  0.0000000000000000e+00 -1.7750001179683665e-02 0.0000000000000000e+00  0.0000000000000000e+00 -1.8124785944247452e-02 0.0000000000000000e+00  0.0000000000000000e+00 -1.8559737653978538e-02 0.0000000000000000e+00  0.0000000000000000e+00 -1.9076348893087239e-02 0.0000000000000000e+00  0.0000000000000000e+00 -1.9707893947837372e-02 0.0000000000000000e+00  0.0000000000000000e+00 -2.0505089150863878e-02 0.0000000000000000e+00  0.0000000000000000e+00 -2.1551481618259045e-02 0.0000000000000000e+00  0.0000000000000000e+00 -2.2932473351527243e-02 0.0000000000000000e+00  1.6390572648875949e-03 -2.3924201544427467e-02 0.0000000000000000e+00  2.8083167673739330e-03 -2.2519422977297750e-02 0.0000000000000000e+00  3.5119417095533134e-03 -2.1208125414347391e-02 0.0000000000000000e+00  3.9174564302108528e-03 -2.0167632377544563e-02 0.0000000000000000e+00  4.1594733461809861e-03 -1.9345838137995251e-02 0.0000000000000000e+00  4.3108680015427328e-03 -1.8669629053656277e-02 0.0000000000000000e+00  4.4102061131831355e-03 -1.8085822261487784e-02 0.0000000000000000e+00  4.4765881717877473e-03 -1.7562844313365526e-02 0.0000000000000000e+00  4.5201911227935833e-03 -1.7079711400496630e-02 0.0000000000000000e+00  4.5474296984148342e-03 -1.6623421629871547e-02 0.0000000000000000e+00  4.5598261241876501e-03 -1.6185089446593786e-02 0.0000000000000000e+00  4.5609775975110206e-03 -1.5757560698189396e-02 0.0000000000000000e+00  4.5522847193631075e-03 -1.5336630931159251e-02 0.0000000000000000e+00  4.5343896731098602e-03 -1.4918936479287595e-02 0.0000000000000000e+00  4.5090172790118776e-03 -1.4502655252814215e-02 0.0000000000000000e+00  4.4758855559014661e-03 -1.4085288387961111e-02 0.0000000000000000e+00  4.4368651262286047e-03 -1.3665518306205542e-02 0.0000000000000000e+00  4.3918134923733579e-03 -1.3243153914616166e-02 0.0000000000000000e+00  4.3413542042290585e-03 -1.2817300594493397e-02 0.0000000000000000e+00  4.2867109647206619e-03 -1.2388234102037819e-02 0.0000000000000000e+00  4.2270050586599422e-03 -1.1955695485585307e-02 0.0000000000000000e+00  4.1642219861924767e-03 -1.1519641529847642e-02 0.0000000000000000e+00  4.0979101269329144e-03 -1.1080615933773887e-02 0.0000000000000000e+00  4.0284674383887584e-03 -1.0638755689152429e-02 0.0000000000000000e+00  3.9570339577136623e-03 -1.0194676110508276e-02 0.0000000000000000e+00  3.8826557048784677e-03 -9.7484697375749725e-03 0.0000000000000000e+00  3.8067093551802317e-03 -9.3001374551814845e-03 0.0000000000000000e+00  3.7290478268252954e-03 -8.8502582831973733e-03 0.0000000000000000e+00  3.6501403768603568e-03 -8.3990061692280800e-03 0.0000000000000000e+00  3.5699356578182879e-03 -7.9462255735076089e-03 0.0000000000000000e+00  3.4882587816086013e-03 -7.4922363014188822e-03 0.0000000000000000e+00  3.4071207514525864e-03 -7.0363863766447019e-03 0.0000000000000000e+00  3.3238021085414305e-03 -6.5787336783240573e-03 0.0000000000000000e+00  3.2410870218889769e-03 -6.1189936670471533e-03 0.0000000000000000e+00  3.1575281671642080e-03 -5.6570942639305810e-03 0.0000000000000000e+00  3.0743388099832873e-03 -5.1929692358073298e-03 0.0000000000000000e+00  2.9929126936324873e-03 -4.7325202697896468e-03 0.0000000000000000e+00  2.9145791295470689e-03 -4.2934683759632735e-03 0.0000000000000000e+00  2.8505288928248654e-03 -3.9413933218416537e-03 0.0000000000000000e+00  2.6285508231674690e-03 -3.8478329105594363e-03 0.0000000000000000e+00  2.2354526811148722e-03 -3.9219411061123602e-03 0.0000000000000000e+00  1.7787733607111990e-03 -4.0166811228200192e-03 0.0000000000000000e+00  1.3154648594384869e-03 -4.1229917512653662e-03 0.0000000000000000e+00  8.5904447393392064e-04 -4.2370070854166539e-03 0.0000000000000000e+00  4.1174290817779880e-04 -4.3559431847212896e-03 0.0000000000000000e+00  -2.6338271628404049e-05 -4.4814566212276821e-03 0.0000000000000000e+00  -4.5535662729226763e-04 -4.6103922586210669e-03 0.0000000000000000e+00  -8.7406096795203500e-04 -4.7441362550378393e-03 0.0000000000000000e+00  -1.2822029522014131e-03 -4.8807099240324725e-03 0.0000000000000000e+00  -1.6780860570300084e-03 -5.0232059497025035e-03 0.0000000000000000e+00  -2.0613386652024329e-03 -5.1682183779238446e-03 0.0000000000000000e+00  -2.4303192447451927e-03 -5.3170114562084096e-03 0.0000000000000000e+00  -2.7827276634171919e-03 -5.4685253442232412e-03 0.0000000000000000e+00  -3.1172396682407301e-03 -5.6240557428035428e-03 0.0000000000000000e+00  -3.4321955398296362e-03 -5.7812911082785381e-03 0.0000000000000000e+00  -3.7248481778632131e-03 -5.9407214019023928e-03 0.0000000000000000e+00  -3.9932511165106334e-03 -6.1016323545967097e-03 0.0000000000000000e+00  -4.2348650107342737e-03 -6.2634725831698969e-03 0.0000000000000000e+00  -4.4469729472951820e-03 -6.4255776157774013e-03 0.0000000000000000e+00  -4.6268315996570893e-03 -6.5871894632290578e-03 0.0000000000000000e+00  -4.7716971668742393e-03 -6.7477786118581027e-03 0.0000000000000000e+00  -4.8788802032066723e-03 -6.9057930185347062e-03 0.0000000000000000e+00  -4.9453946713963904e-03 -7.0612427275093771e-03 0.0000000000000000e+00  -4.9688276837798117e-03 -7.2127967983740228e-03 0.0000000000000000e+00  -4.9468075579012453e-03 -7.3595510147482328e-03 0.0000000000000000e+00  -4.8770057036009069e-03 -7.5005651354548260e-03 0.0000000000000000e+00  -4.7583902488695113e-03 -7.6347845778396159e-03 0.0000000000000000e+00  -4.5890568081121269e-03 -7.7619104820883036e-03 0.0000000000000000e+00  -4.3692558776583044e-03 -7.8804683845055783e-03 0.0000000000000000e+00  -4.0991847124221773e-03 -7.9900107259592620e-03 0.0000000000000000e+00  -3.7797201569608040e-03 -8.0897399498848863e-03 0.0000000000000000e+00  -3.4139828673778127e-03 -8.1793706639549171e-03 0.0000000000000000e+00  -3.0040956160869528e-03 -8.2578505938519092e-03 0.0000000000000000e+00  -2.5544649648397816e-03 -8.3253712214513501e-03 0.0000000000000000e+00  -2.0701618857749599e-03 -8.3809072840235355e-03 0.0000000000000000e+00  -1.5572758449523244e-03 -8.4244390992238120e-03 0.0000000000000000e+00  -1.0229961563980700e-03 -8.4560069454206899e-03 0.0000000000000000e+00  -4.7375403648284789e-04 -8.4752400384933164e-03 0.0000000000000000e+00  8.2797651208933105e-05 -8.4821159709878111e-03 0.0000000000000000e+00  6.3858559217991806e-04 -8.4762007143728939e-03 0.0000000000000000e+00  1.1850601121731837e-03 -8.4575126655950725e-03 0.0000000000000000e+00  1.7152866068835164e-03 -8.4269698202183232e-03 0.0000000000000000e+00  2.2217288214992190e-03 -8.3835797771994059e-03 0.0000000000000000e+00  2.6981199917017478e-03 -8.3285278683009056e-03 0.0000000000000000e+00  3.1391781545628624e-03 -8.2606240682218356e-03 0.0000000000000000e+00  3.5386969360447986e-03 -8.1826488641900310e-03 0.0000000000000000e+00  3.8942679057327673e-03 -8.0926261300871289e-03 0.0000000000000000e+00  4.2021361580178778e-03 -7.9919889312242472e-03 0.0000000000000000e+00  4.4604844706845658e-03 -7.8816925197418789e-03 0.0000000000000000e+00  4.6684095063688289e-03 -7.7623205017325995e-03 0.0000000000000000e+00  4.8258735781913789e-03 -7.6344164042877827e-03 0.0000000000000000e+00  4.9331099514122916e-03 -7.4988129512698560e-03 0.0000000000000000e+00  4.9916048998196912e-03 -7.3568404562368234e-03 0.0000000000000000e+00  5.0032629738072350e-03 -7.2089593049232377e-03 0.0000000000000000e+00  4.9697457173010530e-03 -7.0564970442465631e-03 0.0000000000000000e+00  4.8939158608295626e-03 -6.9002463347357995e-03 0.0000000000000000e+00  4.7783157345463118e-03 -6.7410875551269893e-03 0.0000000000000000e+00  4.6257232708654368e-03 -6.5800105246766848e-03 0.0000000000000000e+00  4.4390366910698640e-03 -6.4177414381115872e-03 0.0000000000000000e+00  4.2209147894058090e-03 -6.2554045795644346e-03 0.0000000000000000e+00  3.9740079790937400e-03 -6.0932105039933028e-03 0.0000000000000000e+00  3.7010335372230194e-03 -5.9322992162335643e-03 0.0000000000000000e+00  3.4045657387600532e-03 -5.7724373679681109e-03 0.0000000000000000e+00  3.0866589061024465e-03 -5.6153144756946336e-03 0.0000000000000000e+00  2.7495627314825487e-03 -5.4606876435451535e-03 0.0000000000000000e+00  2.3951449850215922e-03 -5.3087031876983548e-03 0.0000000000000000e+00  2.0251020296832151e-03 -5.1605649749585777e-03 0.0000000000000000e+00  1.6413392602130053e-03 -5.0155455272715994e-03 0.0000000000000000e+00  1.2448896426127420e-03 -4.8745614666391990e-03 0.0000000000000000e+00  8.3698987140050178e-04 -4.7371363698793011e-03 0.0000000000000000e+00  4.1896546191678221e-04 -4.6045176508311475e-03 0.0000000000000000e+00  -8.7513583759946022e-06 -4.4756987515790284e-03 0.0000000000000000e+00  -4.4543348883696615e-04 -4.3517383592780370e-03 0.0000000000000000e+00  -8.9064128146446042e-04 -4.2326257060983823e-03 0.0000000000000000e+00  -1.3449083285259832e-03 -4.1193122250508382e-03 0.0000000000000000e+00  -1.8047020098865905e-03 -4.0127036443984576e-03 0.0000000000000000e+00  -2.2565350333803749e-03 -3.9197744073746765e-03 0.0000000000000000e+00  -2.6447214178431976e-03 -3.8456503259443539e-03 0.0000000000000000e+00  -1.1758225180589738e-02 -1.2926310175573389e-02 0.0000000000000000e+00  5.2343217994710615e-03 -1.5963804329900057e-02 0.0000000000000000e+00  -2.1859546646603731e-03 -1.2604216210772009e-02 0.0000000000000000e+00  1.1040950029557479e-03 -1.0516158239523225e-02 0.0000000000000000e+00  -7.9894901131671869e-04 -1.5773098659833670e-02 0.0000000000000000e+00  9.4599306446176094e-03 -6.3580383969263091e-02 0.0000000000000000e+00  4.4473689447036098e-03 -6.4148830927667063e-03 0.0000000000000000e+00  2.8017391428614315e-04 -2.0970820278413717e-02 0.0000000000000000e+00  1.2627670844260121e-03 -1.5986060217636249e-02 0.0000000000000000e+00  -5.2808652218753220e-03 -9.2714004103703201e-03 0.0000000000000000e+00  -2.2359265004257595e-03 -1.9168769604463089e-02 0.0000000000000000e+00  4.3519933515020195e-03 -9.4283642630768969e-03 0.0000000000000000e+00  3.3847255305002225e-02 -7.7913817081653819e-02 0.0000000000000000e+00  -1.2576957180428360e-04 -8.7430723914363028e-03 0.0000000000000000e+00  -2.7291171777052599e-03 -6.4309051155775577e-03 0.0000000000000000e+00  1.2636591430780332e-03 -1.3036803645080822e-02 0.0000000000000000e+00  -3.2814222292853984e-03 -8.7816326222766531e-03 0.0000000000000000e+00  -1.4073158891800706e-03 -1.2998453937086459e-02 0.0000000000000000e+00  -5.9650133181027342e-03 -1.5376772977359052e-02 0.0000000000000000e+00  -5.6576488230303734e-04 -7.5795558576238157e-03 0.0000000000000000e+00  -2.0419324829495933e-03 -1.6870365223780999e-02 0.0000000000000000e+00  4.9097231768952705e-03 -6.2020948052892676e-03 0.0000000000000000e+00  1.6479415247361209e-03 -1.4182689393705393e-02 0.0000000000000000e+00  -1.7488110703696602e-02 -2.3480595051981690e-02 0.0000000000000000e+00  4.5358924700069298e-03 -7.8193194025439963e-03 0.0000000000000000e+00  1.5641697172448820e-03 -1.6672207350586908e-02 0.0000000000000000e+00  1.1208000777064551e-02 -1.7826080923132377e-02 0.0000000000000000e+00  1.2983797020930549e-02 -2.0442841278696021e-02 0.0000000000000000e+00  -8.7103489028867310e-04 -1.6069871748142343e-02 0.0000000000000000e+00  -1.2993865166903704e-03 -1.6418129578478120e-02 0.0000000000000000e+00  2.7276691634359491e-03 -8.0394003486320836e-03 0.0000000000000000e+00  -3.8033465549866100e-02 -4.9262526366411581e-03 0.0000000000000000e+00  6.5875014294199206e-03 -1.0472985514415447e-02 0.0000000000000000e+00  2.0804521609347122e-03 -1.7161467849611051e-02 0.0000000000000000e+00  1.2588748319606973e-03 -6.7239691887424078e-03 0.0000000000000000e+00  -6.4276292261919001e-03 -2.9931020753524332e-02 0.0000000000000000e+00  1.6687542358747760e-03 -2.6580977414065027e-02 0.0000000000000000e+00  -1.7053428011080257e-03 -1.0263138155921859e-02 0.0000000000000000e+00  -2.5800594039753176e-03 -1.5027927427325304e-02 0.0000000000000000e+00  -4.