<?xml version="1.0"?>
<VTKFile type="UnstructuredGrid"  version="0.1"  >
<UnstructuredGrid>
<Piece  NumberOfPoints="4372" NumberOfCells="8502">
<Points>
<DataArray  type="Float64"  NumberOfComponents="3"  format="ascii">-2 2 0  0 2 0  0 -2 0  -2 -2 0  -1.949999999999792 2 0  -1.899999999999584 2 0  -1.849999999999375 2 0  -1.799999999999167 2 0  -1.749999999999002 2 0  -1.699999999999306 2 0  -1.649999999999653 2 0  -1.6 2 0  -1.550000000000346 2 0  -1.500000000000693 2 0  -1.45000000000104 2 0  -1.400000000001387 2 0  -1.350000000001733 2 0  -1.30000000000208 2 0  -1.250000000002427 2 0  -1.200000000002774 2 0  -1.150000000003121 2 0  -1.100000000003467 2 0  -1.050000000003814 2 0  -1.000000000004117 2 0  -0.9500000000039528 2 0  -0.9000000000037447 2 0  -0.8500000000035368 2 0  -0.8000000000033287 2 0  -0.7500000000031206 2 0  -0.7000000000029127 2 0  -0.6500000000027044 2 0  -0.6000000000024965 2 0  -0.5500000000022884 2 0  -0.5000000000020806 2 0  -0.4500000000018725 2 0  -0.4000000000016644 2 0  -0.3500000000014563 2 0  -0.3000000000012482 2 0  -0.2500000000010403 2 0  -0.200000000000832 2 0  -0.1500000000006243 2 0  -0.100000000000416 2 0  -0.0500000000002081 2 0  0 1.950000000000139 0  0 1.900000000000277 0  0 1.850000000000416 0  0 1.800000000000555 0  0 1.750000000000693 0  0 1.700000000000832 0  0 1.650000000000971 0  0 1.60000000000111 0  0 1.550000000001248 0  0 1.500000000001387 0  0 1.450000000001526 0  0 1.400000000001664 0  0 1.350000000001803 0  0 1.300000000001942 0  0 1.250000000002081 0  0 1.200000000002219 0  0 1.150000000002358 0  0 1.100000000002496 0  0 1.050000000002635 0  0 1.000000000002774 0  0 0.9500000000029125 0  0 0.9000000000030515 0  0 0.8500000000031902 0  0 0.8000000000033287 0  0 0.7500000000034674 0  0 0.7000000000036062 0  0 0.6500000000037449 0  0 0.6000000000038836 0  0 0.5500000000040224 0  0 0.5000000000041611 0  0 0.4500000000042998 0  0 0.4000000000044384 0  0 0.3500000000045771 0  0 0.3000000000047156 0  0 0.2500000000048543 0  0 0.2000000000049929 0  0 0.1500000000051318 0  0 0.1000000000052705 0  0 0.05000000000540905 0  0 5.504485756091526e-12 0  0 -0.04999999999459082 0  0 -0.09999999999472964 0  0 -0.149999999994868 0  0 -0.1999999999950068 0  0 -0.2499999999951457 0  0 -0.299999999995284 0  0 -0.3499999999954229 0  0 -0.3999999999955617 0  0 -0.4499999999957001 0  0 -0.4999999999958389 0  0 -0.5499999999959777 0  0 -0.5999999999961165 0  0 -0.6499999999962549 0  0 -0.6999999999963937 0  0 -0.7499999999965326 0  0 -0.7999999999966709 0  0 -0.8499999999968098 0  0 -0.8999999999969486 0  0 -0.949999999997087 0  0 -0.9999999999972258 0  0 -1.049999999997365 0  0 -1.099999999997503 0  0 -1.149999999997642 0  0 -1.199999999997781 0  0 -1.249999999997919 0  0 -1.299999999998058 0  0 -1.349999999998198 0  0 -1.399999999998336 0  0 -1.449999999998474 0  0 -1.499999999998613 0  0 -1.549999999998751 0  0 -1.599999999998891 0  0 -1.64999999999903 0  0 -1.699999999999168 0  0 -1.749999999999306 0  0 -1.799999999999445 0  0 -1.849999999999584 0  0 -1.899999999999723 0  0 -1.949999999999862 0  -0.04999999999990573 -2 0  -0.0999999999997993 -2 0  -0.1499999999997056 -2 0  -0.1999999999996293 -2 0  -0.2499999999995475 -2 0  -0.2999999999994072 -2 0  -0.3499999999992615 -2 0  -0.3999999999991157 -2 0  -0.44999999999897 -2 0  -0.4999999999988242 -2 0  -0.5499999999986784 -2 0  -0.5999999999985328 -2 0  -0.649999999998387 -2 0  -0.6999999999982413 -2 0  -0.7499999999980955 -2 0  -0.7999999999979498 -2 0  -0.8499999999978042 -2 0  -0.8999999999976585 -2 0  -0.9499999999975127 -2 0  -0.9999999999973885 -2 0  -1.049999999997498 -2 0  -1.09999999999763 -2 0  -1.149999999997762 -2 0  -1.199999999997894 -2 0  -1.249999999998025 -2 0  -1.299999999998157 -2 0  -1.349999999998289 -2 0  -1.39999999999842 -2 0  -1.449999999998552 -2 0  -1.499999999998683 -2 0  -1.549999999998815 -2 0  -1.599999999998947 -2 0  -1.649999999999078 -2 0  -1.69999999999921 -2 0  -1.749999999999342 -2 0  -1.799999999999474 -2 0  -1.849999999999605 -2 0  -1.899999999999737 -2 0  -1.949999999999869 -2 0  -2 -1.950000000000139 0  -2 -1.900000000000277 0  -2 -1.850000000000416 0  -2 -1.800000000000555 0  -2 -1.750000000000693 0  -2 -1.700000000000832 0  -2 -1.650000000000971 0  -2 -1.60000000000111 0  -2 -1.550000000001248 0  -2 -1.500000000001387 0  -2 -1.450000000001526 0  -2 -1.400000000001664 0  -2 -1.350000000001803 0  -2 -1.300000000001942 0  -2 -1.250000000002081 0  -2 -1.200000000002219 0  -2 -1.150000000002358 0  -2 -1.100000000002496 0  -2 -1.050000000002635 0  -2 -1.000000000002774 0  -2 -0.9500000000029125 0  -2 -0.9000000000030515 0  -2 -0.8500000000031902 0  -2 -0.8000000000033287 0  -2 -0.7500000000034674 0  -2 -0.7000000000036062 0  -2 -0.6500000000037449 0  -2 -0.6000000000038836 0  -2 -0.5500000000040224 0  -2 -0.5000000000041611 0  -2 -0.4500000000042998 0  -2 -0.4000000000044384 0  -2 -0.3500000000045771 0  -2 -0.3000000000047156 0  -2 -0.2500000000048543 0  -2 -0.2000000000049929 0  -2 -0.1500000000051318 0  -2 -0.1000000000052705 0  -2 -0.05000000000540905 0  -2 -5.504485756091526e-12 0  -2 0.04999999999459082 0  -2 0.09999999999472964 0  -2 0.149999999994868 0  -2 0.1999999999950068 0  -2 0.2499999999951457 0  -2 0.299999999995284 0  -2 0.3499999999954229 0  -2 0.3999999999955617 0  -2 0.4499999999957001 0  -2 0.4999999999958389 0  -2 0.5499999999959777 0  -2 0.5999999999961165 0  -2 0.6499999999962549 0  -2 0.6999999999963937 0  -2 0.7499999999965326 0  -2 0.7999999999966709 0  -2 0.8499999999968098 0  -2 0.8999999999969486 0  -2 0.949999999997087 0  -2 0.9999999999972258 0  -2 1.049999999997365 0  -2 1.099999999997503 0  -2 1.149999999997642 0  -2 1.199999999997781 0  -2 1.249999999997919 0  -2 1.299999999998058 0  -2 1.349999999998198 0  -2 1.399999999998336 0  -2 1.449999999998474 0  -2 1.499999999998613 0  -2 1.549999999998751 0  -2 1.599999999998891 0  -2 1.64999999999903 0  -2 1.699999999999168 0  -2 1.749999999999306 0  -2 1.799999999999445 0  -2 1.849999999999584 0  -2 1.899999999999723 0  -2 1.949999999999862 0  -0.9991019297010011 -0.3216894116769606 0  -1.001123860021573 0.7747860510049681 0  -1.157001840564423 -1.161067247012082 0  -1.338027560051535 1.335779534439809 0  -0.6597222222209854 1.340277777778947 0  -0.6585505322915344 0.2210104638722434 0  -1.342670381551713 0.2273264508688188 0  -0.6282204758073073 -0.8120080430170664 0  -0.584236517600881 -1.424312893620663 0  -1.444216308265114 -0.6762220291217811 0  -0.5052068177397626 0.8617966625436217 0  -1.495725541732084 0.8726406067560636 0  -0.5012956875285356 -0.2537377131698332 0  -1.505964779037762 -1.506864731248248 0  -1.533439101629034 -0.2141932377592857 0  -0.9980909254944228 -1.563025322244478 0  -1.573871097078973 -1.076090339205781 0  -0.9938363905916023 1.574658399668859 0  -1.034823301857025 -0.7463046737786232 0  -1.613643420611705 1.613643420611667 0  -0.3789826634893113 1.622833641383097 0  -0.9969623469406674 0.06224895986291776 0  -0.9977570821219073 1.152964911765466 0  -0.3827586671415756 0.4981078379584384 0  -1.617241332858342 0.4981078379584687 0  -0.3735162279179589 -1.10055932464888 0  -0.9514697352838486 0.4195344991084976 0  -0.3671724871528862 -0.5890291676826473 0  -0.8024708669961921 -1.130631989953667 0  -0.3498086031259764 1.176326426441 0  -1.654591699695181 1.175475929606857 0  -0.3418462529951587 0.05839036814553086 0  -1.276352049535552 0.5646214960700082 0  -0.3455726757630372 -1.654274000872155 0  -1.662000930981631 0.09800841401402562 0  -0.7326605900058469 -0.5029780286614124 0  -0.6815317218188973 0.6015493889244842 0  -1.294915051768271 1.68349586060536 0  -0.6978609120161386 1.682418596511037 0  -1.69042813419972 -0.4820149800903958 0  -0.7177378365368432 -1.691938564923942 0  -1.295041566734205 -0.3964989221993158 0  -1.257425593209587 -1.693594420665469 0  -1.246383246782414 -0.1148360514526407 0  -0.7362449271051545 -0.05964032805167522 0  -1.707983706106591 -0.8099422821034401 0  -0.7716224277305496 0.9720234774828133 0  -1.275827556233888 1.059370830779667 0  -1.709731219610966 -1.713515019749574 0  -0.283604077223767 -1.378462113197051 0  -1.331628086330126 -0.9256871504417986 0  -1.718803648671523 -1.313287096736098 0  -1.237157326776588 -1.417624750871973 0  -0.2754377852160807 -0.8405670548436512 0  -0.2604914310470714 0.745077019249353 0  -1.729633983752603 0.7365041208839631 0  -0.2591591556650803 -0.3445128723686334 0  -0.2497705497594995 0.2862378673199174 0  -0.2571319926197782 1.401471300128245 0  -1.750457518478978 1.404891698644917 0  -0.8313391195977098 -1.383947161511035 0  -1.24247470005791 0.8083576983762071 0  -1.75762809210058 -0.121394575294928 0  -1.436009639427774 -1.277692839795198 0  -0.9951285024698884 -0.9801850598617781 0  -0.5860531098993602 1.102916873865959 0  -1.107154037528234 1.367740498542844 0  -1.765353655027761 0.3139359895551974 0  -0.239693234576285 0.9675382248711792 0  -1.762311524625569 0.9715314837693784 0  -1.453060458314344 0.01668426334404738 0  -1.118216683883963 0.2510494134873997 0  -1.487314750788142 -1.768895281943666 0  -0.775695807447912 -0.2851187916602083 0  -1.775021992875828 1.773058151300929 0  -0.2244440016626344 1.771853493176412 0  -0.8797519944267721 1.389822301404418 0  -1.220958717521525 -0.6178523500889427 0  -0.59343770640056 -1.180817576357191 0  -0.9262618789157869 -1.776942446977449 0  -0.2205428235968764 -0.1260615883490472 0  -1.10972339161439 1.777127575560661 0  -0.9394997616645768 -0.5365790009321401 0  -0.812081892264416 -0.7153463049796221 0  -1.783917055200667 -1.008716696077253 0  -0.515263853692324 -1.788606832309386 0  -0.8883686379713935 1.780240085569055 0  -1.545545177082075 0.2916466799431231 0  -1.490071498349099 1.777107893879804 0  -0.5133806951054479 1.777756514587614 0  -1.042544744196485 -1.335739934857762 0  -0.8641039527440014 0.2249999999994 0  -1.475046450324973 0.6546028915744984 0  -1.529677928948796 1.412892352790367 0  -0.4613578028330296 1.41527900122371 0  -1.790928681625402 -1.
[...]
<PointData  Vectors="f_31-0"> 
<DataArray  type="Float64"  Name="f_31-0"  NumberOfComponents="3" format="ascii">-2.9382897992403802e-03 -3.6171506327716436e-03 0.0000000000000000e+00  0.0000000000000000e+00 -2.6070314461391634e-02 0.0000000000000000e+00  0.0000000000000000e+00 -2.5941340176045082e-02 0.0000000000000000e+00  2.9346040973828040e-03 -3.6194151458417687e-03 0.0000000000000000e+00  -2.9746676492619075e-03 -3.8161463654612020e-03 0.0000000000000000e+00  -3.0568540254623648e-03 -4.2395186796005584e-03 0.0000000000000000e+00  -3.1271323350307439e-03 -4.7049496609758304e-03 0.0000000000000000e+00  -3.2179824515608316e-03 -5.1706092889689508e-03 0.0000000000000000e+00  -3.2969693112350059e-03 -5.6356886132722878e-03 0.0000000000000000e+00  -3.3813215999360983e-03 -6.0976758404637284e-03 0.0000000000000000e+00  -3.4651633346767202e-03 -6.5555683523449565e-03 0.0000000000000000e+00  -3.5465398148406217e-03 -7.0130693876284773e-03 0.0000000000000000e+00  -3.6284018762188005e-03 -7.4669221078519574e-03 0.0000000000000000e+00  -3.7116610262043575e-03 -7.9197012157305926e-03 0.0000000000000000e+00  -3.7898218326040179e-03 -8.3707097429322266e-03 0.0000000000000000e+00  -3.8706567200109910e-03 -8.8208998879438887e-03 0.0000000000000000e+00  -3.9489197620645186e-03 -9.2700553486905219e-03 0.0000000000000000e+00  -4.0215722075888109e-03 -9.7163489172270301e-03 0.0000000000000000e+00  -4.0973889788002678e-03 -1.0160777557139762e-02 0.0000000000000000e+00  -4.1706406174963784e-03 -1.0604513288644663e-02 0.0000000000000000e+00  -4.2364569015627459e-03 -1.1044507446759300e-02 0.0000000000000000e+00  -4.3032466215465635e-03 -1.1483273871011659e-02 0.0000000000000000e+00  -4.3682852872083322e-03 -1.1916120480705457e-02 0.0000000000000000e+00  -4.4242158447307936e-03 -1.2349164421076810e-02 0.0000000000000000e+00  -4.4821343557200910e-03 -1.2777168089023391e-02 0.0000000000000000e+00  -4.5298360035734347e-03 -1.3201313789553776e-02 0.0000000000000000e+00  -4.5725458845025510e-03 -1.3622206749856836e-02 0.0000000000000000e+00  -4.6156173114707587e-03 -1.4040675371389134e-02 0.0000000000000000e+00  -4.6474723842188283e-03 -1.4456728535637056e-02 0.0000000000000000e+00  -4.6731635633766675e-03 -1.4872601139658556e-02 0.0000000000000000e+00  -4.6949639212786037e-03 -1.5287453536836925e-02 0.0000000000000000e+00  -4.7053256557992099e-03 -1.5706335206595156e-02 0.0000000000000000e+00  -4.7078593174106299e-03 -1.6131589266649888e-02 0.0000000000000000e+00  -4.7004806533600804e-03 -1.6565081608439072e-02 0.0000000000000000e+00  -4.6839061625349905e-03 -1.7016328887595560e-02 0.0000000000000000e+00  -4.6533895411713343e-03 -1.7489513428757569e-02 0.0000000000000000e+00  -4.6092002268815586e-03 -1.8002243735814289e-02 0.0000000000000000e+00  -4.5403609063769572e-03 -1.8565054509956477e-02 0.0000000000000000e+00  -4.4404791799908137e-03 -1.9213052240091989e-02 0.0000000000000000e+00  -4.2941863198052909e-03 -1.9997495395861865e-02 0.0000000000000000e+00  -3.9995195197919681e-03 -2.1000756550764749e-02 0.0000000000000000e+00  -3.5054640252050497e-03 -2.2427745755563958e-02 0.0000000000000000e+00  -2.3221061891224811e-03 -2.4460601272197766e-02 0.0000000000000000e+00  0.0000000000000000e+00 -2.3478481797890454e-02 0.0000000000000000e+00  0.0000000000000000e+00 -2.1768591279540509e-02 0.0000000000000000e+00  0.0000000000000000e+00 -2.0607796577274313e-02 0.0000000000000000e+00  0.0000000000000000e+00 -1.9772031019006132e-02 0.0000000000000000e+00  0.0000000000000000e+00 -1.9110355720528632e-02 0.0000000000000000e+00  0.0000000000000000e+00 -1.8578878382795441e-02 0.0000000000000000e+00  0.0000000000000000e+00 -1.8131462773452428e-02 0.0000000000000000e+00  0.0000000000000000e+00 -1.7750596460620657e-02 0.0000000000000000e+00  0.0000000000000000e+00 -1.7412713015286008e-02 0.0000000000000000e+00  0.0000000000000000e+00 -1.7113129296531148e-02 0.0000000000000000e+00  0.0000000000000000e+00 -1.6836236089273753e-02 0.0000000000000000e+00  0.0000000000000000e+00 -1.6578064433340322e-02 0.0000000000000000e+00  0.0000000000000000e+00 -1.6323068765079333e-02 0.0000000000000000e+00  0.0000000000000000e+00 -1.6069491354988072e-02 0.0000000000000000e+00  0.0000000000000000e+00 -1.5805150098879055e-02 0.0000000000000000e+00  0.0000000000000000e+00 -1.5516896606740391e-02 0.0000000000000000e+00  0.0000000000000000e+00 -1.5199999100035272e-02 0.0000000000000000e+00  0.0000000000000000e+00 -1.4831974033846141e-02 0.0000000000000000e+00  0.0000000000000000e+00 -1.4399076594788365e-02 0.0000000000000000e+00  0.0000000000000000e+00 -1.3879895245598508e-02 0.0000000000000000e+00  0.0000000000000000e+00 -1.3252918844123654e-02 0.0000000000000000e+00  0.0000000000000000e+00 -1.2480045307996342e-02 0.0000000000000000e+00  0.0000000000000000e+00 -1.1525724011304774e-02 0.0000000000000000e+00  0.0000000000000000e+00 -1.0349078621765297e-02 0.0000000000000000e+00  0.0000000000000000e+00 -8.8791673230343704e-03 0.0000000000000000e+00  0.0000000000000000e+00 -7.0507879436578257e-03 0.0000000000000000e+00  0.0000000000000000e+00 -4.8022538367252857e-03 0.0000000000000000e+00  0.0000000000000000e+00 -1.9994406830851565e-03 0.0000000000000000e+00  0.0000000000000000e+00 1.4480786985427100e-03 0.0000000000000000e+00  0.0000000000000000e+00 5.5960072004869240e-03 0.0000000000000000e+00  0.0000000000000000e+00 1.0685725973012532e-02 0.0000000000000000e+00  0.0000000000000000e+00 1.6624541200538755e-02 0.0000000000000000e+00  0.0000000000000000e+00 2.3586238311592109e-02 0.0000000000000000e+00  0.0000000000000000e+00 3.1383725273285146e-02 0.0000000000000000e+00  0.0000000000000000e+00 3.9804490455866183e-02 0.0000000000000000e+00  0.0000000000000000e+00 4.8389828703651008e-02 0.0000000000000000e+00  0.0000000000000000e+00 5.6493483547370035e-02 0.0000000000000000e+00  0.0000000000000000e+00 6.3378717597299156e-02 0.0000000000000000e+00  0.0000000000000000e+00 6.8072351744445037e-02 0.0000000000000000e+00  0.0000000000000000e+00 7.0034947686777066e-02 0.0000000000000000e+00  0.0000000000000000e+00 6.8912259894223449e-02 0.0000000000000000e+00  0.0000000000000000e+00 6.4949977168641176e-02 0.0000000000000000e+00  0.0000000000000000e+00 5.8571635356095837e-02 0.0000000000000000e+00  0.0000000000000000e+00 5.0687522865626035e-02 0.0000000000000000e+00  0.0000000000000000e+00 4.2121428991265725e-02 0.0000000000000000e+00  0.0000000000000000e+00 3.3568571525496388e-02 0.0000000000000000e+00  0.0000000000000000e+00 2.5514723655795980e-02 0.0000000000000000e+00  0.0000000000000000e+00 1.8332121399260586e-02 0.0000000000000000e+00  0.0000000000000000e+00 1.2051821500683735e-02 0.0000000000000000e+00  0.0000000000000000e+00 6.7596273332657447e-03 0.0000000000000000e+00  0.0000000000000000e+00 2.3631192178406040e-03 0.0000000000000000e+00  0.0000000000000000e+00 -1.2574182936947427e-03 0.0000000000000000e+00  0.0000000000000000e+00 -4.1910893925356154e-03 0.0000000000000000e+00  0.0000000000000000e+00 -6.5908730717360448e-03 0.0000000000000000e+00  0.0000000000000000e+00 -8.5065213714448952e-03 0.0000000000000000e+00  0.0000000000000000e+00 -1.0053482566999642e-02 0.0000000000000000e+00  0.0000000000000000e+00 -1.1298979671956986e-02 0.0000000000000000e+00  0.0000000000000000e+00 -1.2296552767177520e-02 0.0000000000000000e+00  0.0000000000000000e+00 -1.3111067289176454e-02 0.0000000000000000e+00  0.0000000000000000e+00 -1.3770724347368566e-02 0.0000000000000000e+00  0.0000000000000000e+00 -1.4313471323473929e-02 0.0000000000000000e+00  0.0000000000000000e+00 -1.4763366356647538e-02 0.0000000000000000e+00  0.0000000000000000e+00 -1.5147401766478169e-02 0.0000000000000000e+00  0.0000000000000000e+00 -1.5477800090122401e-02 0.0000000000000000e+00  0.0000000000000000e+00 -1.5773112934125470e-02 0.0000000000000000e+00  0.0000000000000000e+00 -1.6048008785575860e-02 0.0000000000000000e+00  0.0000000000000000e+00 -1.6302879915592129e-02 0.0000000000000000e+00  0.0000000000000000e+00 -1.6567407079028883e-02 0.0000000000000000e+00  0.0000000000000000e+00 -1.6822130194146273e-02 0.0000000000000000e+00  0.0000000000000000e+00 -1.7105774205551358e-02 0.0000000000000000e+00  0.0000000000000000e+00 -1.7406123524720159e-02 0.0000000000000000e+00  0.0000000000000000e+00 -1.7742071005651824e-02 0.0000000000000000e+00  0.0000000000000000e+00 -1.8123407720949058e-02 0.0000000000000000e+00  0.0000000000000000e+00 -1.8568953302567449e-02 0.0000000000000000e+00  0.0000000000000000e+00 -1.9098040973130101e-02 0.0000000000000000e+00  0.0000000000000000e+00 -1.9749520887551015e-02 0.0000000000000000e+00  0.0000000000000000e+00 -2.0582767882694402e-02 0.0000000000000000e+00  0.0000000000000000e+00 -2.1723976031142452e-02 0.0000000000000000e+00  0.0000000000000000e+00 -2.3401224777558311e-02 0.0000000000000000e+00  2.3080564504119111e-03 -2.4391873527817728e-02 0.0000000000000000e+00  3.4685049378613297e-03 -2.2418149082168999e-02 0.0000000000000000e+00  4.0001120013911807e-03 -2.1014854160263309e-02 0.0000000000000000e+00  4.2741615530331829e-03 -2.0005598797375509e-02 0.0000000000000000e+00  4.4273534594680792e-03 -1.9226025408773047e-02 0.0000000000000000e+00  4.5338681776409644e-03 -1.8581118548696450e-02 0.0000000000000000e+00  4.6002504069773843e-03 -1.8016818313055988e-02 0.0000000000000000e+00  4.6483473991403342e-03 -1.7507224661535269e-02 0.0000000000000000e+00  4.6797233799653927e-03 -1.7032563446307655e-02 0.0000000000000000e+00  4.6928625044061869e-03 -1.6582687823263574e-02 0.0000000000000000e+00  4.7031661049166682e-03 -1.6150292901521538e-02 0.0000000000000000e+00  4.6998742358051711e-03 -1.5725769931389636e-02 0.0000000000000000e+00  4.6889789403829563e-03 -1.5308083689795023e-02 0.0000000000000000e+00  4.6683760374340699e-03 -1.4891067452859041e-02 0.0000000000000000e+00  4.6404869171548600e-03 -1.4478272660546391e-02 0.0000000000000000e+00  4.6097761239888143e-03 -1.4062441085126717e-02 0.0000000000000000e+00  4.5693781358387402e-03 -1.3643595992476790e-02 0.0000000000000000e+00  4.5240906493936237e-03 -1.3222591799746001e-02 0.0000000000000000e+00  4.4764028503624228e-03 -1.2797585795863086e-02 0.0000000000000000e+00  4.4185582489816013e-03 -1.2369269597273597e-02 0.0000000000000000e+00  4.3624802122370328e-03 -1.1937581198732620e-02 0.0000000000000000e+00  4.2973991002406581e-03 -1.1502590063913683e-02 0.0000000000000000e+00  4.2329067390767068e-03 -1.1064001463887474e-02 0.0000000000000000e+00  4.1651021061228982e-03 -1.0622373024116975e-02 0.0000000000000000e+00  4.0897455302225019e-03 -1.0178709435531246e-02 0.0000000000000000e+00  4.0178248066328869e-03 -9.7345373167811600e-03 0.0000000000000000e+00  3.9430380522636130e-03 -9.2848589420503058e-03 0.0000000000000000e+00  3.8633509140592773e-03 -8.8366971782864491e-03 0.0000000000000000e+00  3.7860520430259251e-03 -8.3846578196080396e-03 0.0000000000000000e+00  3.7047537209366661e-03 -7.9332614042003681e-03 0.0000000000000000e+00  3.6248334936955541e-03 -7.4799233575233662e-03 0.0000000000000000e+00  3.5438320294980960e-03 -7.0230607730282276e-03 0.0000000000000000e+00  3.4610942889298731e-03 -6.5660498805377634e-03 0.0000000000000000e+00  3.3773982919821973e-03 -6.1061224224747829e-03 0.0000000000000000e+00  3.2958877172349836e-03 -5.6432796531726420e-03 0.0000000000000000e+00  3.2131042886550843e-03 -5.1758429310729461e-03 0.0000000000000000e+00  3.1231016846336246e-03 -4.7091543802358455e-03 0.0000000000000000e+00  3.0534620349343916e-03 -4.2419983195659365e-03 0.0000000000000000e+00  2.9727134047723060e-03 -3.8182232972419471e-03 0.0000000000000000e+00  2.6827937317541475e-03 -3.6694382812357917e-03 0.0000000000000000e+00  2.2403201104623000e-03 -3.7570084191220253e-03 0.0000000000000000e+00  1.7710308873270281e-03 -3.8581750226970805e-03 0.0000000000000000e+00  1.3096800149951366e-03 -3.9706085050369962e-03 0.0000000000000000e+00  8.5508116046921771e-04 -4.0867859969763790e-03 0.0000000000000000e+00  4.1048010436300718e-04 -4.2106124474757022e-03 0.0000000000000000e+00  -2.6153402518905734e-05 -4.3348190008848462e-03 0.0000000000000000e+00  -4.5497577447495372e-04 -4.4678301188468316e-03 0.0000000000000000e+00  -8.7311692424701329e-04 -4.6032344754948626e-03 0.0000000000000000e+00  -1.2818972201723716e-03 -4.7437128824433464e-03 0.0000000000000000e+00  -1.6771758076192596e-03 -4.8867708478757379e-03 0.0000000000000000e+00  -2.0616605665904125e-03 -5.0353062318297895e-03 0.0000000000000000e+00  -2.4327593183068427e-03 -5.1877061349472507e-03 0.0000000000000000e+00  -2.7854659684948811e-03 -5.3444471049234801e-03 0.0000000000000000e+00  -3.1218620132871262e-03 -5.5032596390403778e-03 0.0000000000000000e+00  -3.4389549729075936e-03 -5.6662769730211832e-03 0.0000000000000000e+00  -3.7341721433825151e-03 -5.8317921340578565e-03 0.0000000000000000e+00  -4.0043534427238597e-03 -5.9993378007631628e-03 0.0000000000000000e+00  -4.2495397217629498e-03 -6.1680589708434886e-03 0.0000000000000000e+00  -4.4645690533557476e-03 -6.3389429021236199e-03 0.0000000000000000e+00  -4.6476756026501889e-03 -6.5096220249564202e-03 0.0000000000000000e+00  -4.7960304711909280e-03 -6.6799204259194488e-03 0.0000000000000000e+00  -4.9068606173331862e-03 -6.8483912171095687e-03 0.0000000000000000e+00  -4.9772116396127053e-03 -7.0154030164786101e-03 0.0000000000000000e+00  -5.0043534722147582e-03 -7.1793673037711045e-03 0.0000000000000000e+00  -4.9863039542616117e-03 -7.3395328923819307e-03 0.0000000000000000e+00  -4.9199110561911844e-03 -7.4944626575611786e-03 0.0000000000000000e+00  -4.8051781893251409e-03 -7.6394379239489814e-03 0.0000000000000000e+00  -4.6392529896100996e-03 -7.7844722242013812e-03 0.0000000000000000e+00  -4.4217072332955439e-03 -7.9173240911149644e-03 0.0000000000000000e+00  -4.1545760816100530e-03 -8.0388745714180393e-03 0.0000000000000000e+00  -3.8351598878936639e-03 -8.1517677165835536e-03 0.0000000000000000e+00  -3.4728461282307870e-03 -8.2528281561837936e-03 0.0000000000000000e+00  -3.0635396082935471e-03 -8.3449747323330915e-03 0.0000000000000000e+00  -2.6128818409507613e-03 -8.4243249439305400e-03 0.0000000000000000e+00  -2.1282360512409411e-03 -8.4886680018805196e-03 0.0000000000000000e+00  -1.6122485888843568e-03 -8.5381498013126240e-03 0.0000000000000000e+00  -1.0768085467760891e-03 -8.5722065909748391e-03 0.0000000000000000e+00  -5.2587638012236804e-04 -8.5978819129748137e-03 0.0000000000000000e+00  3.4291974899120309e-05 -8.6046835244126835e-03 0.0000000000000000e+00  5.9530834738708580e-04 -8.5996122136682614e-03 0.0000000000000000e+00  1.1454354596060663e-03 -8.5746755760892773e-03 0.0000000000000000e+00  1.6812884749746234e-03 -8.5414441175436819e-03 0.0000000000000000e+00  2.1895991832978651e-03 -8.4790989638976952e-03 0.0000000000000000e+00  2.6715789399126425e-03 -8.4347986163649143e-03 0.0000000000000000e+00  3.1204784581371331e-03 -8.3339796647582363e-03 0.0000000000000000e+00  3.5215329825419141e-03 -8.2592734710963730e-03 0.0000000000000000e+00  3.8818360057818239e-03 -8.1532573327850466e-03 0.0000000000000000e+00  4.1948706675253760e-03 -8.0387024373339191e-03 0.0000000000000000e+00  4.4560325433848826e-03 -7.9138852736244294e-03 0.0000000000000000e+00  4.6677680157372866e-03 -7.7830835410800684e-03 0.0000000000000000e+00  4.8283410845169419e-03 -7.6405337145978016e-03 0.0000000000000000e+00  4.9387126702903411e-03 -7.4918429123892140e-03 0.0000000000000000e+00  4.9996396454210926e-03 -7.3376075822454718e-03 0.0000000000000000e+00  5.0137728677518145e-03 -7.1759739687635160e-03 0.0000000000000000e+00  4.9821092279425756e-03 -7.0130968978508474e-03 0.0000000000000000e+00  4.9079871846235620e-03 -6.8456255039747631e-03 0.0000000000000000e+00  4.7938186107018121e-03 -6.6762833317985642e-03 0.0000000000000000e+00  4.6423421988130379e-03 -6.5054582910941822e-03 0.0000000000000000e+00  4.4566045000515612e-03 -6.3349974249089936e-03 0.0000000000000000e+00  4.2396741471245969e-03 -6.1648441655689813e-03 0.0000000000000000e+00  3.9931294890944045e-03 -5.9952183596907399e-03 0.0000000000000000e+00  3.7202801669159262e-03 -5.8273055795491384e-03 0.0000000000000000e+00  3.4242832879150796e-03 -5.6631716307071469e-03 0.0000000000000000e+00  3.1063410896665293e-03 -5.4999127651653955e-03 0.0000000000000000e+00  2.7703475714609626e-03 -5.3405502041317648e-03 0.0000000000000000e+00  2.4151625196285813e-03 -5.1851990385854262e-03 0.0000000000000000e+00  2.0455651056498457e-03 -5.0316595567106159e-03 0.0000000000000000e+00  1.6616257128255513e-03 -4.8859521852632586e-03 0.0000000000000000e+00  1.2652344228199436e-03 -4.7390089518470459e-03 0.0000000000000000e+00  8.5790298908559567e-04 -4.6014560778477251e-03 0.0000000000000000e+00  4.3971790735560542e-04 -4.4642145707342769e-03 0.0000000000000000e+00  1.2552656293132411e-05 -4.3334970127450008e-03 0.0000000000000000e+00  -4.2433890504439507e-04 -4.2071012330261847e-03 0.0000000000000000e+00  -8.6726785050843854e-04 -4.0846303004986170e-03 0.0000000000000000e+00  -1.3218842615485846e-03 -3.9663405731515458e-03 0.0000000000000000e+00  -1.7816025863886819e-03 -3.8593858507981619e-03 0.0000000000000000e+00  -2.2472705604593426e-03 -3.7533836099956745e-03 0.0000000000000000e+00  -2.6911854840576226e-03 -3.6687019834093044e-03 0.0000000000000000e+00  -1.1924571862913826e-02 -1.2983656742141711e-02 0.0000000000000000e+00  5.3204558261853181e-03 -1.5948700519705164e-02 0.0000000000000000e+00  -2.1644784250061536e-03 -1.2605791527676144e-02 0.0000000000000000e+00  1.1252520973761204e-03 -1.0516590565060730e-02 0.0000000000000000e+00  -7.8200872726050014e-04 -1.5798886858383956e-02 0.0000000000000000e+00  1.2151170977521606e-02 -6.4127137889245414e-02 0.0000000000000000e+00  4.3866062426759543e-03 -6.3117580850586301e-03 0.0000000000000000e+00  3.1865035953818505e-04 -2.0919567660090340e-02 0.0000000000000000e+00  1.2857110146851051e-03 -1.5967282299348705e-02 0.0000000000000000e+00  -5.2923563131118991e-03 -9.2983393743760832e-03 0.0000000000000000e+00  -2.2137459748000502e-03 -1.9253326643258718e-02 0.0000000000000000e+00  4.3684679935474735e-03 -9.4088732013446353e-03 0.0000000000000000e+00  3.3982218509215976e-02 -7.9273177259054195e-02 0.0000000000000000e+00  -1.1728794246120317e-04 -8.7372093335510593e-03 0.0000000000000000e+00  -2.7984487217711943e-03 -6.4364699571052026e-03 0.0000000000000000e+00  1.2793978291919107e-03 -1.3021966790935278e-02 0.0000000000000000e+00  -3.2781512077602838e-03 -8.7864892319062162e-03 0.0000000000000000e+00  -1.3907486602788516e-03 -1.3011003401484712e-02 0.0000000000000000e+00  -5.9307685636712367e-03 -1.5399388837137526e-02 0.0000000000000000e+00  -5.4836963018098850e-04 -7.5789788573274695e-03 0.0000000000000000e+00  -2.0388237883027711e-03 -1.6892762485853977e-02 0.0000000000000000e+00  4.6476946080186016e-03 -5.5559051481578201e-03 0.0000000000000000e+00  1.6838421941624976e-03 -1.4192551761719116e-02 0.0000000000000000e+00  -1.7793120330437590e-02 -2.3787498364184406e-02 0.0000000000000000e+00  4.5194572648388229e-03 -7.7879667262182803e-03 0.0000000000000000e+00  1.5773977370750160e-03 -1.6643124582343936e-02 0.0000000000000000e+00  1.1460692501239197e-02 -1.7632412343040707e-02 0.0000000000000000e+00  1.2947815146215579e-02 -2.0378943821716931e-02 0.0000000000000000e+00  -8.4157470699273605e-04 -1.6050766493472732e-02 0.0000000000000000e+00  -1.2938196357999527e-03 -1.6457916153056387e-02 0.0000000000000000e+00  2.7429995113231777e-03 -8.0333193880329917e-03 0.0000000000000000e+00  -4.2524169391098959e-02 1.6653720961957975e-03 0.0000000000000000e+00  6.6194669402677743e-03 -1.0397396668184742e-02 0.0000000000000000e+00  2.1026506517092584e-03 -1.7144255796612932e-02 0.0000000000000000e+00  1.2013889036687471e-03 -6.7012823290840528e-03 0.0000000000000000e+00  -6.3795115902473311e-03 -2.9890698803926304e-02 0.0000000000000000e+00  1.8564803250447270e-03 -2.6736484542254746e-02 0.0000000000000000e+00  -1.6910942045146292e-03 -1.0267915594730425e-02 0.0000000000000000e+00  -2.5682134116409832e-03 -1.5044276738706364e-02 0.0000000000000000e+00  -4.22