<?xml version="1.0"?>
<VTKFile type="UnstructuredGrid"  version="0.1"  >
<UnstructuredGrid>
<Piece  NumberOfPoints="4372" NumberOfCells="8502">
<Points>
<DataArray  type="Float64"  NumberOfComponents="3"  format="ascii">-2 2 0  0 2 0  0 -2 0  -2 -2 0  -1.949999999999792 2 0  -1.899999999999584 2 0  -1.849999999999375 2 0  -1.799999999999167 2 0  -1.749999999999002 2 0  -1.699999999999306 2 0  -1.649999999999653 2 0  -1.6 2 0  -1.550000000000346 2 0  -1.500000000000693 2 0  -1.45000000000104 2 0  -1.400000000001387 2 0  -1.350000000001733 2 0  -1.30000000000208 2 0  -1.250000000002427 2 0  -1.200000000002774 2 0  -1.150000000003121 2 0  -1.100000000003467 2 0  -1.050000000003814 2 0  -1.000000000004117 2 0  -0.9500000000039528 2 0  -0.9000000000037447 2 0  -0.8500000000035368 2 0  -0.8000000000033287 2 0  -0.7500000000031206 2 0  -0.7000000000029127 2 0  -0.6500000000027044 2 0  -0.6000000000024965 2 0  -0.5500000000022884 2 0  -0.5000000000020806 2 0  -0.4500000000018725 2 0  -0.4000000000016644 2 0  -0.3500000000014563 2 0  -0.3000000000012482 2 0  -0.2500000000010403 2 0  -0.200000000000832 2 0  -0.1500000000006243 2 0  -0.100000000000416 2 0  -0.0500000000002081 2 0  0 1.950000000000139 0  0 1.900000000000277 0  0 1.850000000000416 0  0 1.800000000000555 0  0 1.750000000000693 0  0 1.700000000000832 0  0 1.650000000000971 0  0 1.60000000000111 0  0 1.550000000001248 0  0 1.500000000001387 0  0 1.450000000001526 0  0 1.400000000001664 0  0 1.350000000001803 0  0 1.300000000001942 0  0 1.250000000002081 0  0 1.200000000002219 0  0 1.150000000002358 0  0 1.100000000002496 0  0 1.050000000002635 0  0 1.000000000002774 0  0 0.9500000000029125 0  0 0.9000000000030515 0  0 0.8500000000031902 0  0 0.8000000000033287 0  0 0.7500000000034674 0  0 0.7000000000036062 0  0 0.6500000000037449 0  0 0.6000000000038836 0  0 0.5500000000040224 0  0 0.5000000000041611 0  0 0.4500000000042998 0  0 0.4000000000044384 0  0 0.3500000000045771 0  0 0.3000000000047156 0  0 0.2500000000048543 0  0 0.2000000000049929 0  0 0.1500000000051318 0  0 0.1000000000052705 0  0 0.05000000000540905 0  0 5.504485756091526e-12 0  0 -0.04999999999459082 0  0 -0.09999999999472964 0  0 -0.149999999994868 0  0 -0.1999999999950068 0  0 -0.2499999999951457 0  0 -0.299999999995284 0  0 -0.3499999999954229 0  0 -0.3999999999955617 0  0 -0.4499999999957001 0  0 -0.4999999999958389 0  0 -0.5499999999959777 0  0 -0.5999999999961165 0  0 -0.6499999999962549 0  0 -0.6999999999963937 0  0 -0.7499999999965326 0  0 -0.7999999999966709 0  0 -0.8499999999968098 0  0 -0.8999999999969486 0  0 -0.949999999997087 0  0 -0.9999999999972258 0  0 -1.049999999997365 0  0 -1.099999999997503 0  0 -1.149999999997642 0  0 -1.199999999997781 0  0 -1.249999999997919 0  0 -1.299999999998058 0  0 -1.349999999998198 0  0 -1.399999999998336 0  0 -1.449999999998474 0  0 -1.499999999998613 0  0 -1.549999999998751 0  0 -1.599999999998891 0  0 -1.64999999999903 0  0 -1.699999999999168 0  0 -1.749999999999306 0  0 -1.799999999999445 0  0 -1.849999999999584 0  0 -1.899999999999723 0  0 -1.949999999999862 0  -0.04999999999990573 -2 0  -0.0999999999997993 -2 0  -0.1499999999997056 -2 0  -0.1999999999996293 -2 0  -0.2499999999995475 -2 0  -0.2999999999994072 -2 0  -0.3499999999992615 -2 0  -0.3999999999991157 -2 0  -0.44999999999897 -2 0  -0.4999999999988242 -2 0  -0.5499999999986784 -2 0  -0.5999999999985328 -2 0  -0.649999999998387 -2 0  -0.6999999999982413 -2 0  -0.7499999999980955 -2 0  -0.7999999999979498 -2 0  -0.8499999999978042 -2 0  -0.8999999999976585 -2 0  -0.9499999999975127 -2 0  -0.9999999999973885 -2 0  -1.049999999997498 -2 0  -1.09999999999763 -2 0  -1.149999999997762 -2 0  -1.199999999997894 -2 0  -1.249999999998025 -2 0  -1.299999999998157 -2 0  -1.349999999998289 -2 0  -1.39999999999842 -2 0  -1.449999999998552 -2 0  -1.499999999998683 -2 0  -1.549999999998815 -2 0  -1.599999999998947 -2 0  -1.649999999999078 -2 0  -1.69999999999921 -2 0  -1.749999999999342 -2 0  -1.799999999999474 -2 0  -1.849999999999605 -2 0  -1.899999999999737 -2 0  -1.949999999999869 -2 0  -2 -1.950000000000139 0  -2 -1.900000000000277 0  -2 -1.850000000000416 0  -2 -1.800000000000555 0  -2 -1.750000000000693 0  -2 -1.700000000000832 0  -2 -1.650000000000971 0  -2 -1.60000000000111 0  -2 -1.550000000001248 0  -2 -1.500000000001387 0  -2 -1.450000000001526 0  -2 -1.400000000001664 0  -2 -1.350000000001803 0  -2 -1.300000000001942 0  -2 -1.250000000002081 0  -2 -1.200000000002219 0  -2 -1.150000000002358 0  -2 -1.100000000002496 0  -2 -1.050000000002635 0  -2 -1.000000000002774 0  -2 -0.9500000000029125 0  -2 -0.9000000000030515 0  -2 -0.8500000000031902 0  -2 -0.8000000000033287 0  -2 -0.7500000000034674 0  -2 -0.7000000000036062 0  -2 -0.6500000000037449 0  -2 -0.6000000000038836 0  -2 -0.5500000000040224 0  -2 -0.5000000000041611 0  -2 -0.4500000000042998 0  -2 -0.4000000000044384 0  -2 -0.3500000000045771 0  -2 -0.3000000000047156 0  -2 -0.2500000000048543 0  -2 -0.2000000000049929 0  -2 -0.1500000000051318 0  -2 -0.1000000000052705 0  -2 -0.05000000000540905 0  -2 -5.504485756091526e-12 0  -2 0.04999999999459082 0  -2 0.09999999999472964 0  -2 0.149999999994868 0  -2 0.1999999999950068 0  -2 0.2499999999951457 0  -2 0.299999999995284 0  -2 0.3499999999954229 0  -2 0.3999999999955617 0  -2 0.4499999999957001 0  -2 0.4999999999958389 0  -2 0.5499999999959777 0  -2 0.5999999999961165 0  -2 0.6499999999962549 0  -2 0.6999999999963937 0  -2 0.7499999999965326 0  -2 0.7999999999966709 0  -2 0.8499999999968098 0  -2 0.8999999999969486 0  -2 0.949999999997087 0  -2 0.9999999999972258 0  -2 1.049999999997365 0  -2 1.099999999997503 0  -2 1.149999999997642 0  -2 1.199999999997781 0  -2 1.249999999997919 0  -2 1.299999999998058 0  -2 1.349999999998198 0  -2 1.399999999998336 0  -2 1.449999999998474 0  -2 1.499999999998613 0  -2 1.549999999998751 0  -2 1.599999999998891 0  -2 1.64999999999903 0  -2 1.699999999999168 0  -2 1.749999999999306 0  -2 1.799999999999445 0  -2 1.849999999999584 0  -2 1.899999999999723 0  -2 1.949999999999862 0  -0.9991019297010011 -0.3216894116769606 0  -1.001123860021573 0.7747860510049681 0  -1.157001840564423 -1.161067247012082 0  -1.338027560051535 1.335779534439809 0  -0.6597222222209854 1.340277777778947 0  -0.6585505322915344 0.2210104638722434 0  -1.342670381551713 0.2273264508688188 0  -0.6282204758073073 -0.8120080430170664 0  -0.584236517600881 -1.424312893620663 0  -1.444216308265114 -0.6762220291217811 0  -0.5052068177397626 0.8617966625436217 0  -1.495725541732084 0.8726406067560636 0  -0.5012956875285356 -0.2537377131698332 0  -1.505964779037762 -1.506864731248248 0  -1.533439101629034 -0.2141932377592857 0  -0.9980909254944228 -1.563025322244478 0  -1.573871097078973 -1.076090339205781 0  -0.9938363905916023 1.574658399668859 0  -1.034823301857025 -0.7463046737786232 0  -1.613643420611705 1.613643420611667 0  -0.3789826634893113 1.622833641383097 0  -0.9969623469406674 0.06224895986291776 0  -0.9977570821219073 1.152964911765466 0  -0.3827586671415756 0.4981078379584384 0  -1.617241332858342 0.4981078379584687 0  -0.3735162279179589 -1.10055932464888 0  -0.9514697352838486 0.4195344991084976 0  -0.3671724871528862 -0.5890291676826473 0  -0.8024708669961921 -1.130631989953667 0  -0.3498086031259764 1.176326426441 0  -1.654591699695181 1.175475929606857 0  -0.3418462529951587 0.05839036814553086 0  -1.276352049535552 0.5646214960700082 0  -0.3455726757630372 -1.654274000872155 0  -1.662000930981631 0.09800841401402562 0  -0.7326605900058469 -0.5029780286614124 0  -0.6815317218188973 0.6015493889244842 0  -1.294915051768271 1.68349586060536 0  -0.6978609120161386 1.682418596511037 0  -1.69042813419972 -0.4820149800903958 0  -0.7177378365368432 -1.691938564923942 0  -1.295041566734205 -0.3964989221993158 0  -1.257425593209587 -1.693594420665469 0  -1.246383246782414 -0.1148360514526407 0  -0.7362449271051545 -0.05964032805167522 0  -1.707983706106591 -0.8099422821034401 0  -0.7716224277305496 0.9720234774828133 0  -1.275827556233888 1.059370830779667 0  -1.709731219610966 -1.713515019749574 0  -0.283604077223767 -1.378462113197051 0  -1.331628086330126 -0.9256871504417986 0  -1.718803648671523 -1.313287096736098 0  -1.237157326776588 -1.417624750871973 0  -0.2754377852160807 -0.8405670548436512 0  -0.2604914310470714 0.745077019249353 0  -1.729633983752603 0.7365041208839631 0  -0.2591591556650803 -0.3445128723686334 0  -0.2497705497594995 0.2862378673199174 0  -0.2571319926197782 1.401471300128245 0  -1.750457518478978 1.404891698644917 0  -0.8313391195977098 -1.383947161511035 0  -1.24247470005791 0.8083576983762071 0  -1.75762809210058 -0.121394575294928 0  -1.436009639427774 -1.277692839795198 0  -0.9951285024698884 -0.9801850598617781 0  -0.5860531098993602 1.102916873865959 0  -1.107154037528234 1.367740498542844 0  -1.765353655027761 0.3139359895551974 0  -0.239693234576285 0.9675382248711792 0  -1.762311524625569 0.9715314837693784 0  -1.453060458314344 0.01668426334404738 0  -1.118216683883963 0.2510494134873997 0  -1.487314750788142 -1.768895281943666 0  -0.775695807447912 -0.2851187916602083 0  -1.775021992875828 1.773058151300929 0  -0.2244440016626344 1.771853493176412 0  -0.8797519944267721 1.389822301404418 0  -1.220958717521525 -0.6178523500889427 0  -0.59343770640056 -1.180817576357191 0  -0.9262618789157869 -1.776942446977449 0  -0.2205428235968764 -0.1260615883490472 0  -1.10972339161439 1.777127575560661 0  -0.9394997616645768 -0.5365790009321401 0  -0.812081892264416 -0.7153463049796221 0  -1.783917055200667 -1.008716696077253 0  -0.515263853692324 -1.788606832309386 0  -0.8883686379713935 1.780240085569055 0  -1.545545177082075 0.2916466799431231 0  -1.490071498349099 1.777107893879804 0  -0.5133806951054479 1.777756514587614 0  -1.042544744196485 -1.335739934857762 0  -0.8641039527440014 0.2249999999994 0  -1.475046450324973 0.6546028915744984 0  -1.529677928948796 1.412892352790367 0  -0.4613578028330296 1.41527900122371 0  -1.790928681625402 -1.
[...]
<PointData  Vectors="f_31-0"> 
<DataArray  type="Float64"  Name="f_31-0"  NumberOfComponents="3" format="ascii">-2.5933414349566465e-03 -4.2156882226879354e-03 0.0000000000000000e+00  0.0000000000000000e+00 -2.3177301901526930e-02 0.0000000000000000e+00  0.0000000000000000e+00 -2.2935940808975753e-02 0.0000000000000000e+00  2.5550800745219510e-03 -4.2245996349748564e-03 0.0000000000000000e+00  -2.6200999114370104e-03 -4.2828064077398186e-03 0.0000000000000000e+00  -2.6717263885984227e-03 -4.5039552362731378e-03 0.0000000000000000e+00  -2.7390630255527595e-03 -4.8401489076298522e-03 0.0000000000000000e+00  -2.8144252133425825e-03 -5.2421892884637403e-03 0.0000000000000000e+00  -2.8948847264082594e-03 -5.6753154289015673e-03 0.0000000000000000e+00  -2.9774769560709968e-03 -6.1204560356214847e-03 0.0000000000000000e+00  -3.0610305268898618e-03 -6.5693826762791710e-03 0.0000000000000000e+00  -3.1447024954166717e-03 -7.0188107518655198e-03 0.0000000000000000e+00  -3.2279829773777698e-03 -7.4677052487298274e-03 0.0000000000000000e+00  -3.3104787304987491e-03 -7.9157027979082292e-03 0.0000000000000000e+00  -3.3920774932139921e-03 -8.3626775299168732e-03 0.0000000000000000e+00  -3.4724007588924468e-03 -8.8084849511311774e-03 0.0000000000000000e+00  -3.5513446777427401e-03 -9.2530029470941546e-03 0.0000000000000000e+00  -3.6287103994845325e-03 -9.6960542397809355e-03 0.0000000000000000e+00  -3.7040108257902593e-03 -1.0137393253640112e-02 0.0000000000000000e+00  -3.7771369883707827e-03 -1.0576760879351990e-02 0.0000000000000000e+00  -3.8478131781514327e-03 -1.1013928017471262e-02 0.0000000000000000e+00  -3.9153956447201908e-03 -1.1448548578659627e-02 0.0000000000000000e+00  -3.9796003137807122e-03 -1.1880473905142947e-02 0.0000000000000000e+00  -4.0399450799057761e-03 -1.2309484978297631e-02 0.0000000000000000e+00  -4.0958365811061227e-03 -1.2735565318889974e-02 0.0000000000000000e+00  -4.1467267005098106e-03 -1.3158856809019896e-02 0.0000000000000000e+00  -4.1918868889077093e-03 -1.3579670207404764e-02 0.0000000000000000e+00  -4.2303397378561265e-03 -1.3998686456356831e-02 0.0000000000000000e+00  -4.2614820202412449e-03 -1.4416951525284334e-02 0.0000000000000000e+00  -4.2840407025128181e-03 -1.4836030300620487e-02 0.0000000000000000e+00  -4.2966626541035930e-03 -1.5258098640240740e-02 0.0000000000000000e+00  -4.2976895499217222e-03 -1.5686320871398370e-02 0.0000000000000000e+00  -4.2847725954643819e-03 -1.6125070964090635e-02 0.0000000000000000e+00  -4.2545007399792554e-03 -1.6580423859632844e-02 0.0000000000000000e+00  -4.2020630801101076e-03 -1.7060979497552267e-02 0.0000000000000000e+00  -4.1197398474491654e-03 -1.7578826012177275e-02 0.0000000000000000e+00  -3.9957747645595820e-03 -1.8150240200175156e-02 0.0000000000000000e+00  -3.8124878219272457e-03 -1.8796410872082950e-02 0.0000000000000000e+00  -3.5436550531391399e-03 -1.9539258975582459e-02 0.0000000000000000e+00  -3.1549957269570673e-03 -2.0389120904105509e-02 0.0000000000000000e+00  -2.6127933316611009e-03 -2.1319157297732014e-02 0.0000000000000000e+00  -1.8863320343382453e-03 -2.2223896342308147e-02 0.0000000000000000e+00  -9.9599133683928986e-04 -2.2914239415796876e-02 0.0000000000000000e+00  0.0000000000000000e+00 -2.2165207360842702e-02 0.0000000000000000e+00  0.0000000000000000e+00 -2.1207065541612509e-02 0.0000000000000000e+00  0.0000000000000000e+00 -2.0350203343320088e-02 0.0000000000000000e+00  0.0000000000000000e+00 -1.9616733177370400e-02 0.0000000000000000e+00  0.0000000000000000e+00 -1.9002072762562161e-02 0.0000000000000000e+00  0.0000000000000000e+00 -1.8486542973438547e-02 0.0000000000000000e+00  0.0000000000000000e+00 -1.8049156902668305e-02 0.0000000000000000e+00  0.0000000000000000e+00 -1.7671854334638540e-02 0.0000000000000000e+00  0.0000000000000000e+00 -1.7340309078444093e-02 0.0000000000000000e+00  0.0000000000000000e+00 -1.7043189605042520e-02 0.0000000000000000e+00  0.0000000000000000e+00 -1.6770885180099390e-02 0.0000000000000000e+00  0.0000000000000000e+00 -1.6514731374209536e-02 0.0000000000000000e+00  0.0000000000000000e+00 -1.6266681248037759e-02 0.0000000000000000e+00  0.0000000000000000e+00 -1.6018216929086230e-02 0.0000000000000000e+00  0.0000000000000000e+00 -1.5760883811612520e-02 0.0000000000000000e+00  0.0000000000000000e+00 -1.5484444688817715e-02 0.0000000000000000e+00  0.0000000000000000e+00 -1.5177697549392537e-02 0.0000000000000000e+00  0.0000000000000000e+00 -1.4827381057708894e-02 0.0000000000000000e+00  0.0000000000000000e+00 -1.4417307845372209e-02 0.0000000000000000e+00  0.0000000000000000e+00 -1.3928308883368013e-02 0.0000000000000000e+00  0.0000000000000000e+00 -1.3337038671826860e-02 0.0000000000000000e+00  0.0000000000000000e+00 -1.2614408914989550e-02 0.0000000000000000e+00  0.0000000000000000e+00 -1.1725616007183087e-02 0.0000000000000000e+00  0.0000000000000000e+00 -1.0627735117500748e-02 0.0000000000000000e+00  0.0000000000000000e+00 -9.2677894776584026e-03 0.0000000000000000e+00  0.0000000000000000e+00 -7.5857302708957205e-03 0.0000000000000000e+00  0.0000000000000000e+00 -5.5062334973866745e-03 0.0000000000000000e+00  0.0000000000000000e+00 -2.9444192399095243e-03 0.0000000000000000e+00  0.0000000000000000e+00 1.9103420154626202e-04 0.0000000000000000e+00  0.0000000000000000e+00 3.9982661760739084e-03 0.0000000000000000e+00  0.0000000000000000e+00 8.5675970817853195e-03 0.0000000000000000e+00  0.0000000000000000e+00 1.3957052972036805e-02 0.0000000000000000e+00  0.0000000000000000e+00 2.0175482968681682e-02 0.0000000000000000e+00  0.0000000000000000e+00 2.7141531742995474e-02 0.0000000000000000e+00  0.0000000000000000e+00 3.4633210547763568e-02 0.0000000000000000e+00  0.0000000000000000e+00 4.2270107731429307e-02 0.0000000000000000e+00  0.0000000000000000e+00 4.9497208368950781e-02 0.0000000000000000e+00  0.0000000000000000e+00 5.5658977650683075e-02 0.0000000000000000e+00  0.0000000000000000e+00 6.0052774900136052e-02 0.0000000000000000e+00  0.0000000000000000e+00 6.2131558016571116e-02 0.0000000000000000e+00  0.0000000000000000e+00 6.1606370205784751e-02 0.0000000000000000e+00  0.0000000000000000e+00 5.8536033861281755e-02 0.0000000000000000e+00  0.0000000000000000e+00 5.3316536980034156e-02 0.0000000000000000e+00  0.0000000000000000e+00 4.6571454508190467e-02 0.0000000000000000e+00  0.0000000000000000e+00 3.9004756476288233e-02 0.0000000000000000e+00  0.0000000000000000e+00 3.1257484311403121e-02 0.0000000000000000e+00  0.0000000000000000e+00 2.3838168788222456e-02 0.0000000000000000e+00  0.0000000000000000e+00 1.7065946067535327e-02 0.0000000000000000e+00  0.0000000000000000e+00 1.1112471496630295e-02 0.0000000000000000e+00  0.0000000000000000e+00 6.0171782117603772e-03 0.0000000000000000e+00  0.0000000000000000e+00 1.7480761921663281e-03 0.0000000000000000e+00  0.0000000000000000e+00 -1.7772391050105212e-03 0.0000000000000000e+00  0.0000000000000000e+00 -4.6558311803576837e-03 0.0000000000000000e+00  0.0000000000000000e+00 -6.9897645425827833e-03 0.0000000000000000e+00  0.0000000000000000e+00 -8.8717982456412523e-03 0.0000000000000000e+00  0.0000000000000000e+00 -1.0384791425470634e-02 0.0000000000000000e+00  0.0000000000000000e+00 -1.1600459643135197e-02 0.0000000000000000e+00  0.0000000000000000e+00 -1.2577547018353468e-02 0.0000000000000000e+00  0.0000000000000000e+00 -1.3365533701296400e-02 0.0000000000000000e+00  0.0000000000000000e+00 -1.4004570163141664e-02 0.0000000000000000e+00  0.0000000000000000e+00 -1.4527302002458133e-02 0.0000000000000000e+00  0.0000000000000000e+00 -1.4960378637796416e-02 0.0000000000000000e+00  0.0000000000000000e+00 -1.5325321454044168e-02 0.0000000000000000e+00  0.0000000000000000e+00 -1.5640156278362904e-02 0.0000000000000000e+00  0.0000000000000000e+00 -1.5919673483051362e-02 0.0000000000000000e+00  0.0000000000000000e+00 -1.6176021018202900e-02 0.0000000000000000e+00  0.0000000000000000e+00 -1.6419798804378400e-02 0.0000000000000000e+00  0.0000000000000000e+00 -1.6660722362780014e-02 0.0000000000000000e+00  0.0000000000000000e+00 -1.6907043101547538e-02 0.0000000000000000e+00  0.0000000000000000e+00 -1.7166837114356275e-02 0.0000000000000000e+00  0.0000000000000000e+00 -1.7448653613011744e-02 0.0000000000000000e+00  0.0000000000000000e+00 -1.7761525388743489e-02 0.0000000000000000e+00  0.0000000000000000e+00 -1.8115947852255673e-02 0.0000000000000000e+00  0.0000000000000000e+00 -1.8524664622779106e-02 0.0000000000000000e+00  0.0000000000000000e+00 -1.9003976986763385e-02 0.0000000000000000e+00  0.0000000000000000e+00 -1.9573938985422538e-02 0.0000000000000000e+00  0.0000000000000000e+00 -2.0253520619082272e-02 0.0000000000000000e+00  0.0000000000000000e+00 -2.1054841400648065e-02 0.0000000000000000e+00  0.0000000000000000e+00 -2.1963360501503677e-02 0.0000000000000000e+00  9.6180782755564604e-04 -2.2704467087607368e-02 0.0000000000000000e+00  1.8255862616206155e-03 -2.2092366126037450e-02 0.0000000000000000e+00  2.5308461270606127e-03 -2.1278706384723397e-02 0.0000000000000000e+00  3.0656871674201182e-03 -2.0428857202807814e-02 0.0000000000000000e+00  3.4523536484017377e-03 -1.9636509774628212e-02 0.0000000000000000e+00  3.7230147082680559e-03 -1.8930797016131821e-02 0.0000000000000000e+00  3.9104283249768428e-03 -1.8306618585965804e-02 0.0000000000000000e+00  4.0385255643078984e-03 -1.7747198494599135e-02 0.0000000000000000e+00  4.1247040115979091e-03 -1.7235269899511959e-02 0.0000000000000000e+00  4.1806946440384940e-03 -1.6756875416583807e-02 0.0000000000000000e+00  4.2132372887653926e-03 -1.6301514995748497e-02 0.0000000000000000e+00  4.2280803996136151e-03 -1.5861191040846156e-02 0.0000000000000000e+00  4.2285221703996243e-03 -1.5430322795673244e-02 0.0000000000000000e+00  4.2169625649716869e-03 -1.5004797777252101e-02 0.0000000000000000e+00  4.1954233555764097e-03 -1.4581727574501102e-02 0.0000000000000000e+00  4.1649133349589860e-03 -1.4158916986977481e-02 0.0000000000000000e+00  4.1271035558467627e-03 -1.3734903508912223e-02 0.0000000000000000e+00  4.0827209453302349e-03 -1.3308766644133000e-02 0.0000000000000000e+00  4.0325956858017001e-03 -1.2879834541028229e-02 0.0000000000000000e+00  3.9777377478870070e-03 -1.2447895218311317e-02 0.0000000000000000e+00  3.9182020056765599e-03 -1.2012822597074193e-02 0.0000000000000000e+00  3.8551558669281871e-03 -1.1574706894380478e-02 0.0000000000000000e+00  3.7887516251470066e-03 -1.1133767954068298e-02 0.0000000000000000e+00  3.7195028442647739e-03 -1.0690251068870695e-02 0.0000000000000000e+00  3.6480140412014960e-03 -1.0244450573363090e-02 0.0000000000000000e+00  3.5740978569280490e-03 -9.7966722601893208e-03 0.0000000000000000e+00  3.4984465227224154e-03 -9.3471507358331620e-03 0.0000000000000000e+00  3.4212466568443096e-03 -8.8961170032655721e-03 0.0000000000000000e+00  3.3426265840585077e-03 -8.4438085045707954e-03 0.0000000000000000e+00  3.2628334567900495e-03 -7.9902371089002212e-03 0.0000000000000000e+00  3.1818932971241546e-03 -7.5355491470950400e-03 0.0000000000000000e+00  3.1004507839680652e-03 -7.0797368624337508e-03 0.0000000000000000e+00  3.0181617160388880e-03 -6.6230996412862501e-03 0.0000000000000000e+00  2.9360728388931321e-03 -6.1666593534515620e-03 0.0000000000000000e+00  2.8545026504600644e-03 -5.7135787473929864e-03 0.0000000000000000e+00  2.7750887527595871e-03 -5.2722808478113730e-03 0.0000000000000000e+00  2.7004052299381483e-03 -4.8623615574148729e-03 0.0000000000000000e+00  2.6333867675144220e-03 -4.5193564795777226e-03 0.0000000000000000e+00  2.5821865865503593e-03 -4.2933063440906589e-03 0.0000000000000000e+00  2.4352087987003232e-03 -4.2528245849112294e-03 0.0000000000000000e+00  2.1474712065222079e-03 -4.3094708205922930e-03 0.0000000000000000e+00  1.7579849561607710e-03 -4.3868417760771503e-03 0.0000000000000000e+00  1.3210286084283582e-03 -4.4790491851053596e-03 0.0000000000000000e+00  8.6956511979312777e-04 -4.5822584917653460e-03 0.0000000000000000e+00  4.1985487294479208e-04 -4.6934117439862968e-03 0.0000000000000000e+00  -2.1731675116993474e-05 -4.8113807569371784e-03 0.0000000000000000e+00  -4.5300491920424014e-04 -4.9342477400407519e-03 0.0000000000000000e+00  -8.7290055567303777e-04 -5.0616592553517454e-03 0.0000000000000000e+00  -1.2807123176005045e-03 -5.1925967863475286e-03 0.0000000000000000e+00  -1.6754203963480429e-03 -5.3274165525020586e-03 0.0000000000000000e+00  -2.0560256552289843e-03 -5.4649512112049008e-03 0.0000000000000000e+00  -2.4210928273496130e-03 -5.6050800352843259e-03 0.0000000000000000e+00  -2.7690704790546542e-03 -5.7472020255930900e-03 0.0000000000000000e+00  -3.0981078168804094e-03 -5.8913042769114850e-03 0.0000000000000000e+00  -3.4063805766837135e-03 -6.0363272718294740e-03 0.0000000000000000e+00  -3.6916794713538845e-03 -6.1819253485386793e-03 0.0000000000000000e+00  -3.9517650999174661e-03 -6.3274297973968134e-03 0.0000000000000000e+00  -4.1841514700649033e-03 -6.4721510102529571e-03 0.0000000000000000e+00  -4.3863364875057573e-03 -6.6152847679718076e-03 0.0000000000000000e+00  -4.5556659729344591e-03 -6.7562508913336884e-03 0.0000000000000000e+00  -4.6893862184998513e-03 -6.8941307138103902e-03 0.0000000000000000e+00  -4.7850142168134246e-03 -7.0280210707525720e-03 0.0000000000000000e+00  -4.8397752804183354e-03 -7.1573576873638980e-03 0.0000000000000000e+00  -4.8513744185184416e-03 -7.2813175584069837e-03 0.0000000000000000e+00  -4.8176571430093625e-03 -7.3991143911168343e-03 0.0000000000000000e+00  -4.7367364604407802e-03 -7.5101637592280383e-03 0.0000000000000000e+00  -4.6074841832154925e-03 -7.6138584540778355e-03 0.0000000000000000e+00  -4.4286759634645460e-03 -7.7098716675085069e-03 0.0000000000000000e+00  -4.2005397922045386e-03 -7.7977195316794382e-03 0.0000000000000000e+00  -3.9236575451405461e-03 -7.8772599406628039e-03 0.0000000000000000e+00  -3.5993605889376749e-03 -7.9483931026498936e-03 0.0000000000000000e+00  -3.2302066756305764e-03 -8.0110602122610997e-03 0.0000000000000000e+00  -2.8192390187853291e-03 -8.0651987162925036e-03 0.0000000000000000e+00  -2.3708642860366469e-03 -8.1111583481537977e-03 0.0000000000000000e+00  -1.8901448182435123e-03 -8.1489058313207168e-03 0.0000000000000000e+00  -1.3829637440059724e-03 -8.1786742160810198e-03 0.0000000000000000e+00  -8.5598506340965619e-04 -8.2005727224623137e-03 0.0000000000000000e+00  -3.1621502352547145e-04 -8.2145114229488520e-03 0.0000000000000000e+00  2.2883953684630306e-04 -8.2206843355553134e-03 0.0000000000000000e+00  7.7155203391497521e-04 -8.2188892242360256e-03 0.0000000000000000e+00  1.3042934799209565e-03 -8.2090536131190876e-03 0.0000000000000000e+00  1.8198010206058623e-03 -8.1908790946662660e-03 0.0000000000000000e+00  2.3113242956340307e-03 -8.1644817419508804e-03 0.0000000000000000e+00  2.7723117252091605e-03 -8.1287890225377225e-03 0.0000000000000000e+00  3.1979211318470405e-03 -8.0845260187366319e-03 0.0000000000000000e+00  3.5829632834210754e-03 -8.0308800198848687e-03 0.0000000000000000e+00  3.9241334741485934e-03 -7.9680227500574796e-03 0.0000000000000000e+00  4.2185599264321109e-03 -7.8957771052441117e-03 0.0000000000000000e+00  4.4645886231351644e-03 -7.8144218214026145e-03 0.0000000000000000e+00  4.6610727071269538e-03 -7.7241148908420137e-03 0.0000000000000000e+00  4.8081224346341583e-03 -7.6252006907399951e-03 0.0000000000000000e+00  4.9061822399752795e-03 -7.5180880934769450e-03 0.0000000000000000e+00  4.9565693846043962e-03 -7.4035488707124833e-03 0.0000000000000000e+00  4.9610584425068974e-03 -7.2821928468521889e-03 0.0000000000000000e+00  4.9215036058091657e-03 -7.1546573692068943e-03 0.0000000000000000e+00  4.8405364959889282e-03 -7.0219690075492619e-03 0.0000000000000000e+00  4.7206512724394219e-03 -6.8848382701769796e-03 0.0000000000000000e+00  4.5645638542295844e-03 -6.7441392626735848e-03 0.0000000000000000e+00  4.3750138631540435e-03 -6.6007430673530373e-03 0.0000000000000000e+00  4.1546476472566745e-03 -6.4554643103882665e-03 0.0000000000000000e+00  3.9061167182359814e-03 -6.3090132479594980e-03 0.0000000000000000e+00  3.6319537077150097e-03 -6.1622352558894757e-03 0.0000000000000000e+00  3.3345929522034740e-03 -6.0155995211941937e-03 0.0000000000000000e+00  3.0161526899844249e-03 -5.8700137418237477e-03 0.0000000000000000e+00  2.6787335550125719e-03 -5.7258789594409280e-03 0.0000000000000000e+00  2.3242122480162911e-03 -5.5836366044747770e-03 0.0000000000000000e+00  1.9542326000924390e-03 -5.4439083300235917e-03 0.0000000000000000e+00  1.5703539640281635e-03 -5.3068808082091540e-03 0.0000000000000000e+00  1.1737797942217099e-03 -5.1731583255978774e-03 0.0000000000000000e+00  7.6564249426693822e-04 -5.0428673863055062e-03 0.0000000000000000e+00  3.4680454085227869e-04 -4.9166994576695985e-03 0.0000000000000000e+00  -8.1936057773218226e-05 -4.7949719311978656e-03 0.0000000000000000e+00  -5.1955093783278769e-04 -4.6785320109415151e-03 0.0000000000000000e+00  -9.6351335330178349e-04 -4.5684921739012332e-03 0.0000000000000000e+00  -1.4069658855479208e-03 -4.4666458468648274e-03 0.0000000000000000e+00  -1.8328781087999313e-03 -4.3753557583143124e-03 0.0000000000000000e+00  -2.2081242893449760e-03 -4.2994514751947613e-03 0.0000000000000000e+00  -2.4816620542446100e-03 -4.2433155205726008e-03 0.0000000000000000e+00  -1.1040240453483580e-02 -1.2943132368748757e-02 0.0000000000000000e+00  4.9639837008916346e-03 -1.5999982861957390e-02 0.0000000000000000e+00  -2.2508822243963371e-03 -1.2608708730025127e-02 0.0000000000000000e+00  1.0357548281015655e-03 -1.0514383602540410e-02 0.0000000000000000e+00  -8.5486978199476773e-04 -1.5693351692348759e-02 0.0000000000000000e+00  3.6101048196044185e-03 -6.0058208103809865e-02 0.0000000000000000e+00  4.6103257122914422e-03 -6.7637834021909904e-03 0.0000000000000000e+00  1.7359287892699927e-04 -2.1119424426893040e-02 0.0000000000000000e+00  1.1948133200738933e-03 -1.6045421687132286e-02 0.0000000000000000e+00  -5.2328116381992812e-03 -9.1968080580347635e-03 0.0000000000000000e+00  -2.2825042155168256e-03 -1.8902500865303665e-02 0.0000000000000000e+00  4.2954347610940887e-03 -9.4884318139526278e-03 0.0000000000000000e+00  3.0225582875001142e-02 -7.1116705425694635e-02 0.0000000000000000e+00  -1.5586061757175647e-04 -8.7646572907523201e-03 0.0000000000000000e+00  -2.5097194822667006e-03 -6.4335896143786356e-03 0.0000000000000000e+00  1.2043186018413968e-03 -1.3081945376179517e-02 0.0000000000000000e+00  -3.2917764083553475e-03 -8.7693448056620354e-03 0.0000000000000000e+00  -1.4619813076154138e-03 -1.2965521906035246e-02 0.0000000000000000e+00  -6.0490916692144299e-03 -1.5310763118396494e-02 0.0000000000000000e+00  -6.1621041231548586e-04 -7.5824503618864194e-03 0.0000000000000000e+00  -2.0510964591587554e-03 -1.6804644222512766e-02 0.0000000000000000e+00  5.5638207875457922e-03 -8.5832630659772573e-03 0.0000000000000000e+00  1.5361728736397486e-03 -1.4148048231564432e-02 0.0000000000000000e+00  -1.6470184464444041e-02 -2.2571597326322555e-02 0.0000000000000000e+00  4.5794661654921616e-03 -7.9264638345506698e-03 0.0000000000000000e+00  1.5209865721785736e-03 -1.6756905938042185e-02 0.0000000000000000e+00  1.0404049382111811e-02 -1.8478489521820744e-02 0.0000000000000000e+00  1.3045187647933046e-02 -2.0591981529780277e-02 0.0000000000000000e+00  -9.6213960591783781e-04 -1.6124158914129511e-02 0.0000000000000000e+00  -1.3086085552552274e-03 -1.6299222451302341e-02 0.0000000000000000e+00  2.6763878269617032e-03 -8.0521920937472232e-03 0.0000000000000000e+00  -2.7461076890819565e-02 -1.5747350296929353e-02 0.0000000000000000e+00  6.4791408710091159e-03 -1.0706346674356630e-02 0.0000000000000000e+00  2.0000254400425466e-03 -1.7198164336052424e-02 0.0000000000000000e+00  1.4285803577796315e-03 -6.8012342637552882e-03 0.0000000000000000e+00  -6.3208967593843821e-03 -3.0095384967405717e-02 0.0000000000000000e+00  1.0974117943492506e-03 -2.6080935302678725e-02 0.0000000000000000e+00  -1.7518795662726954e-03 -1.0250521475499010e-02 0.0000000000000000e+00  -2.6139169209198330e-03 -1.4981075055924395e-02 0.0000000000000000e+00  -4.