<?xml version="1.0"?>
<VTKFile type="UnstructuredGrid"  version="0.1"  >
<UnstructuredGrid>
<Piece  NumberOfPoints="4372" NumberOfCells="8502">
<Points>
<DataArray  type="Float64"  NumberOfComponents="3"  format="ascii">-2 2 0  0 2 0  0 -2 0  -2 -2 0  -1.949999999999792 2 0  -1.899999999999584 2 0  -1.849999999999375 2 0  -1.799999999999167 2 0  -1.749999999999002 2 0  -1.699999999999306 2 0  -1.649999999999653 2 0  -1.6 2 0  -1.550000000000346 2 0  -1.500000000000693 2 0  -1.45000000000104 2 0  -1.400000000001387 2 0  -1.350000000001733 2 0  -1.30000000000208 2 0  -1.250000000002427 2 0  -1.200000000002774 2 0  -1.150000000003121 2 0  -1.100000000003467 2 0  -1.050000000003814 2 0  -1.000000000004117 2 0  -0.9500000000039528 2 0  -0.9000000000037447 2 0  -0.8500000000035368 2 0  -0.8000000000033287 2 0  -0.7500000000031206 2 0  -0.7000000000029127 2 0  -0.6500000000027044 2 0  -0.6000000000024965 2 0  -0.5500000000022884 2 0  -0.5000000000020806 2 0  -0.4500000000018725 2 0  -0.4000000000016644 2 0  -0.3500000000014563 2 0  -0.3000000000012482 2 0  -0.2500000000010403 2 0  -0.200000000000832 2 0  -0.1500000000006243 2 0  -0.100000000000416 2 0  -0.0500000000002081 2 0  0 1.950000000000139 0  0 1.900000000000277 0  0 1.850000000000416 0  0 1.800000000000555 0  0 1.750000000000693 0  0 1.700000000000832 0  0 1.650000000000971 0  0 1.60000000000111 0  0 1.550000000001248 0  0 1.500000000001387 0  0 1.450000000001526 0  0 1.400000000001664 0  0 1.350000000001803 0  0 1.300000000001942 0  0 1.250000000002081 0  0 1.200000000002219 0  0 1.150000000002358 0  0 1.100000000002496 0  0 1.050000000002635 0  0 1.000000000002774 0  0 0.9500000000029125 0  0 0.9000000000030515 0  0 0.8500000000031902 0  0 0.8000000000033287 0  0 0.7500000000034674 0  0 0.7000000000036062 0  0 0.6500000000037449 0  0 0.6000000000038836 0  0 0.5500000000040224 0  0 0.5000000000041611 0  0 0.4500000000042998 0  0 0.4000000000044384 0  0 0.3500000000045771 0  0 0.3000000000047156 0  0 0.2500000000048543 0  0 0.2000000000049929 0  0 0.1500000000051318 0  0 0.1000000000052705 0  0 0.05000000000540905 0  0 5.504485756091526e-12 0  0 -0.04999999999459082 0  0 -0.09999999999472964 0  0 -0.149999999994868 0  0 -0.1999999999950068 0  0 -0.2499999999951457 0  0 -0.299999999995284 0  0 -0.3499999999954229 0  0 -0.3999999999955617 0  0 -0.4499999999957001 0  0 -0.4999999999958389 0  0 -0.5499999999959777 0  0 -0.5999999999961165 0  0 -0.6499999999962549 0  0 -0.6999999999963937 0  0 -0.7499999999965326 0  0 -0.7999999999966709 0  0 -0.8499999999968098 0  0 -0.8999999999969486 0  0 -0.949999999997087 0  0 -0.9999999999972258 0  0 -1.049999999997365 0  0 -1.099999999997503 0  0 -1.149999999997642 0  0 -1.199999999997781 0  0 -1.249999999997919 0  0 -1.299999999998058 0  0 -1.349999999998198 0  0 -1.399999999998336 0  0 -1.449999999998474 0  0 -1.499999999998613 0  0 -1.549999999998751 0  0 -1.599999999998891 0  0 -1.64999999999903 0  0 -1.699999999999168 0  0 -1.749999999999306 0  0 -1.799999999999445 0  0 -1.849999999999584 0  0 -1.899999999999723 0  0 -1.949999999999862 0  -0.04999999999990573 -2 0  -0.0999999999997993 -2 0  -0.1499999999997056 -2 0  -0.1999999999996293 -2 0  -0.2499999999995475 -2 0  -0.2999999999994072 -2 0  -0.3499999999992615 -2 0  -0.3999999999991157 -2 0  -0.44999999999897 -2 0  -0.4999999999988242 -2 0  -0.5499999999986784 -2 0  -0.5999999999985328 -2 0  -0.649999999998387 -2 0  -0.6999999999982413 -2 0  -0.7499999999980955 -2 0  -0.7999999999979498 -2 0  -0.8499999999978042 -2 0  -0.8999999999976585 -2 0  -0.9499999999975127 -2 0  -0.9999999999973885 -2 0  -1.049999999997498 -2 0  -1.09999999999763 -2 0  -1.149999999997762 -2 0  -1.199999999997894 -2 0  -1.249999999998025 -2 0  -1.299999999998157 -2 0  -1.349999999998289 -2 0  -1.39999999999842 -2 0  -1.449999999998552 -2 0  -1.499999999998683 -2 0  -1.549999999998815 -2 0  -1.599999999998947 -2 0  -1.649999999999078 -2 0  -1.69999999999921 -2 0  -1.749999999999342 -2 0  -1.799999999999474 -2 0  -1.849999999999605 -2 0  -1.899999999999737 -2 0  -1.949999999999869 -2 0  -2 -1.950000000000139 0  -2 -1.900000000000277 0  -2 -1.850000000000416 0  -2 -1.800000000000555 0  -2 -1.750000000000693 0  -2 -1.700000000000832 0  -2 -1.650000000000971 0  -2 -1.60000000000111 0  -2 -1.550000000001248 0  -2 -1.500000000001387 0  -2 -1.450000000001526 0  -2 -1.400000000001664 0  -2 -1.350000000001803 0  -2 -1.300000000001942 0  -2 -1.250000000002081 0  -2 -1.200000000002219 0  -2 -1.150000000002358 0  -2 -1.100000000002496 0  -2 -1.050000000002635 0  -2 -1.000000000002774 0  -2 -0.9500000000029125 0  -2 -0.9000000000030515 0  -2 -0.8500000000031902 0  -2 -0.8000000000033287 0  -2 -0.7500000000034674 0  -2 -0.7000000000036062 0  -2 -0.6500000000037449 0  -2 -0.6000000000038836 0  -2 -0.5500000000040224 0  -2 -0.5000000000041611 0  -2 -0.4500000000042998 0  -2 -0.4000000000044384 0  -2 -0.3500000000045771 0  -2 -0.3000000000047156 0  -2 -0.2500000000048543 0  -2 -0.2000000000049929 0  -2 -0.1500000000051318 0  -2 -0.1000000000052705 0  -2 -0.05000000000540905 0  -2 -5.504485756091526e-12 0  -2 0.04999999999459082 0  -2 0.09999999999472964 0  -2 0.149999999994868 0  -2 0.1999999999950068 0  -2 0.2499999999951457 0  -2 0.299999999995284 0  -2 0.3499999999954229 0  -2 0.3999999999955617 0  -2 0.4499999999957001 0  -2 0.4999999999958389 0  -2 0.5499999999959777 0  -2 0.5999999999961165 0  -2 0.6499999999962549 0  -2 0.6999999999963937 0  -2 0.7499999999965326 0  -2 0.7999999999966709 0  -2 0.8499999999968098 0  -2 0.8999999999969486 0  -2 0.949999999997087 0  -2 0.9999999999972258 0  -2 1.049999999997365 0  -2 1.099999999997503 0  -2 1.149999999997642 0  -2 1.199999999997781 0  -2 1.249999999997919 0  -2 1.299999999998058 0  -2 1.349999999998198 0  -2 1.399999999998336 0  -2 1.449999999998474 0  -2 1.499999999998613 0  -2 1.549999999998751 0  -2 1.599999999998891 0  -2 1.64999999999903 0  -2 1.699999999999168 0  -2 1.749999999999306 0  -2 1.799999999999445 0  -2 1.849999999999584 0  -2 1.899999999999723 0  -2 1.949999999999862 0  -0.9991019297010011 -0.3216894116769606 0  -1.001123860021573 0.7747860510049681 0  -1.157001840564423 -1.161067247012082 0  -1.338027560051535 1.335779534439809 0  -0.6597222222209854 1.340277777778947 0  -0.6585505322915344 0.2210104638722434 0  -1.342670381551713 0.2273264508688188 0  -0.6282204758073073 -0.8120080430170664 0  -0.584236517600881 -1.424312893620663 0  -1.444216308265114 -0.6762220291217811 0  -0.5052068177397626 0.8617966625436217 0  -1.495725541732084 0.8726406067560636 0  -0.5012956875285356 -0.2537377131698332 0  -1.505964779037762 -1.506864731248248 0  -1.533439101629034 -0.2141932377592857 0  -0.9980909254944228 -1.563025322244478 0  -1.573871097078973 -1.076090339205781 0  -0.9938363905916023 1.574658399668859 0  -1.034823301857025 -0.7463046737786232 0  -1.613643420611705 1.613643420611667 0  -0.3789826634893113 1.622833641383097 0  -0.9969623469406674 0.06224895986291776 0  -0.9977570821219073 1.152964911765466 0  -0.3827586671415756 0.4981078379584384 0  -1.617241332858342 0.4981078379584687 0  -0.3735162279179589 -1.10055932464888 0  -0.9514697352838486 0.4195344991084976 0  -0.3671724871528862 -0.5890291676826473 0  -0.8024708669961921 -1.130631989953667 0  -0.3498086031259764 1.176326426441 0  -1.654591699695181 1.175475929606857 0  -0.3418462529951587 0.05839036814553086 0  -1.276352049535552 0.5646214960700082 0  -0.3455726757630372 -1.654274000872155 0  -1.662000930981631 0.09800841401402562 0  -0.7326605900058469 -0.5029780286614124 0  -0.6815317218188973 0.6015493889244842 0  -1.294915051768271 1.68349586060536 0  -0.6978609120161386 1.682418596511037 0  -1.69042813419972 -0.4820149800903958 0  -0.7177378365368432 -1.691938564923942 0  -1.295041566734205 -0.3964989221993158 0  -1.257425593209587 -1.693594420665469 0  -1.246383246782414 -0.1148360514526407 0  -0.7362449271051545 -0.05964032805167522 0  -1.707983706106591 -0.8099422821034401 0  -0.7716224277305496 0.9720234774828133 0  -1.275827556233888 1.059370830779667 0  -1.709731219610966 -1.713515019749574 0  -0.283604077223767 -1.378462113197051 0  -1.331628086330126 -0.9256871504417986 0  -1.718803648671523 -1.313287096736098 0  -1.237157326776588 -1.417624750871973 0  -0.2754377852160807 -0.8405670548436512 0  -0.2604914310470714 0.745077019249353 0  -1.729633983752603 0.7365041208839631 0  -0.2591591556650803 -0.3445128723686334 0  -0.2497705497594995 0.2862378673199174 0  -0.2571319926197782 1.401471300128245 0  -1.750457518478978 1.404891698644917 0  -0.8313391195977098 -1.383947161511035 0  -1.24247470005791 0.8083576983762071 0  -1.75762809210058 -0.121394575294928 0  -1.436009639427774 -1.277692839795198 0  -0.9951285024698884 -0.9801850598617781 0  -0.5860531098993602 1.102916873865959 0  -1.107154037528234 1.367740498542844 0  -1.765353655027761 0.3139359895551974 0  -0.239693234576285 0.9675382248711792 0  -1.762311524625569 0.9715314837693784 0  -1.453060458314344 0.01668426334404738 0  -1.118216683883963 0.2510494134873997 0  -1.487314750788142 -1.768895281943666 0  -0.775695807447912 -0.2851187916602083 0  -1.775021992875828 1.773058151300929 0  -0.2244440016626344 1.771853493176412 0  -0.8797519944267721 1.389822301404418 0  -1.220958717521525 -0.6178523500889427 0  -0.59343770640056 -1.180817576357191 0  -0.9262618789157869 -1.776942446977449 0  -0.2205428235968764 -0.1260615883490472 0  -1.10972339161439 1.777127575560661 0  -0.9394997616645768 -0.5365790009321401 0  -0.812081892264416 -0.7153463049796221 0  -1.783917055200667 -1.008716696077253 0  -0.515263853692324 -1.788606832309386 0  -0.8883686379713935 1.780240085569055 0  -1.545545177082075 0.2916466799431231 0  -1.490071498349099 1.777107893879804 0  -0.5133806951054479 1.777756514587614 0  -1.042544744196485 -1.335739934857762 0  -0.8641039527440014 0.2249999999994 0  -1.475046450324973 0.6546028915744984 0  -1.529677928948796 1.412892352790367 0  -0.4613578028330296 1.41527900122371 0  -1.790928681625402 -1.
[...]
<PointData  Vectors="f_31-0"> 
<DataArray  type="Float64"  Name="f_31-0"  NumberOfComponents="3" format="ascii">-2.7083079724427245e-03 -4.0093448275151621e-03 0.0000000000000000e+00  0.0000000000000000e+00 -2.3902563836937472e-02 0.0000000000000000e+00  0.0000000000000000e+00 -2.3675474652151668e-02 0.0000000000000000e+00  2.6864089703581701e-03 -4.0136642824296397e-03 0.0000000000000000e+00  -2.7387918028521398e-03 -4.1009551636284041e-03 0.0000000000000000e+00  -2.7963448597434323e-03 -4.3785585421619736e-03 0.0000000000000000e+00  -2.8694487600577955e-03 -4.7672881544466011e-03 0.0000000000000000e+00  -2.9485319188759557e-03 -5.2028779989481272e-03 0.0000000000000000e+00  -3.0313341199664817e-03 -5.6539771200702664e-03 0.0000000000000000e+00  -3.1149221042009465e-03 -6.1082939936084185e-03 0.0000000000000000e+00  -3.1988015850696471e-03 -6.5623937628426048e-03 0.0000000000000000e+00  -3.2824301858852471e-03 -7.0152004509271629e-03 0.0000000000000000e+00  -3.3655089552347092e-03 -7.4666398682747652e-03 0.0000000000000000e+00  -3.4476433532525112e-03 -7.9167816763716994e-03 0.0000000000000000e+00  -3.5289272018088702e-03 -8.3656934552378080e-03 0.0000000000000000e+00  -3.6088092255278491e-03 -8.8132573507632306e-03 0.0000000000000000e+00  -3.6873351375180962e-03 -9.2594171321169292e-03 0.0000000000000000e+00  -3.7643804041488783e-03 -9.7040384505846719e-03 0.0000000000000000e+00  -3.8391457765026196e-03 -1.0146860284780478e-02 0.0000000000000000e+00  -3.9117847009962166e-03 -1.0587634101239082e-02 0.0000000000000000e+00  -3.9821175784331159e-03 -1.1026160816812436e-02 0.0000000000000000e+00  -4.0492091504986949e-03 -1.1461955009914296e-02 0.0000000000000000e+00  -4.1129573274025187e-03 -1.1894980134829614e-02 0.0000000000000000e+00  -4.1729483867426944e-03 -1.2324886831327219e-02 0.0000000000000000e+00  -4.2285554228492037e-03 -1.2751613346299142e-02 0.0000000000000000e+00  -4.2794366129382455e-03 -1.3175236687633625e-02 0.0000000000000000e+00  -4.3248971896354916e-03 -1.3595970117792499e-02 0.0000000000000000e+00  -4.3638587668046987e-03 -1.4014373070801289e-02 0.0000000000000000e+00  -4.3963033288984639e-03 -1.4431375469738458e-02 0.0000000000000000e+00  -4.4209591645285769e-03 -1.4848339426857989e-02 0.0000000000000000e+00  -4.4367583405262659e-03 -1.5267073901171546e-02 0.0000000000000000e+00  -4.4426683139638387e-03 -1.5690362403320869e-02 0.0000000000000000e+00  -4.4370538139781035e-03 -1.6122032502197764e-02 0.0000000000000000e+00  -4.4174753047534938e-03 -1.6567266717519371e-02 0.0000000000000000e+00  -4.3808209911858128e-03 -1.7033501876776186e-02 0.0000000000000000e+00  -4.3216354113785769e-03 -1.7531613907866311e-02 0.0000000000000000e+00  -4.2311323568090756e-03 -1.8077425063731417e-02 0.0000000000000000e+00  -4.0943560990301222e-03 -1.8694566272450221e-02 0.0000000000000000e+00  -3.8853724077372565e-03 -1.9416654756455279e-02 0.0000000000000000e+00  -3.5599457444624770e-03 -2.0284479355694704e-02 0.0000000000000000e+00  -3.0587643043957480e-03 -2.1325096095201772e-02 0.0000000000000000e+00  -2.2969392519768882e-03 -2.2476448669024221e-02 0.0000000000000000e+00  -1.2544536407767485e-03 -2.3482177906136405e-02 0.0000000000000000e+00  0.0000000000000000e+00 -2.2615624687127293e-02 0.0000000000000000e+00  0.0000000000000000e+00 -2.1449240369352154e-02 0.0000000000000000e+00  0.0000000000000000e+00 -2.0471941837174910e-02 0.0000000000000000e+00  0.0000000000000000e+00 -1.9683215026700823e-02 0.0000000000000000e+00  0.0000000000000000e+00 -1.9046885813437085e-02 0.0000000000000000e+00  0.0000000000000000e+00 -1.8523278662384197e-02 0.0000000000000000e+00  0.0000000000000000e+00 -1.8082595891486100e-02 0.0000000000000000e+00  0.0000000000000000e+00 -1.7703617005786140e-02 0.0000000000000000e+00  0.0000000000000000e+00 -1.7370944210389240e-02 0.0000000000000000e+00  0.0000000000000000e+00 -1.7072891038103583e-02 0.0000000000000000e+00  0.0000000000000000e+00 -1.6799616490507919e-02 0.0000000000000000e+00  0.0000000000000000e+00 -1.6542336913651198e-02 0.0000000000000000e+00  0.0000000000000000e+00 -1.6292841321535929e-02 0.0000000000000000e+00  0.0000000000000000e+00 -1.6042474893294412e-02 0.0000000000000000e+00  0.0000000000000000e+00 -1.5782611047339756e-02 0.0000000000000000e+00  0.0000000000000000e+00 -1.5502741475898734e-02 0.0000000000000000e+00  0.0000000000000000e+00 -1.5191437664544033e-02 0.0000000000000000e+00  0.0000000000000000e+00 -1.4835040440024073e-02 0.0000000000000000e+00  0.0000000000000000e+00 -1.4416901480594690e-02 0.0000000000000000e+00  0.0000000000000000e+00 -1.3917231747493881e-02 0.0000000000000000e+00  0.0000000000000000e+00 -1.3312019856602358e-02 0.0000000000000000e+00  0.0000000000000000e+00 -1.2571036259896251e-02 0.0000000000000000e+00  0.0000000000000000e+00 -1.1658254354244777e-02 0.0000000000000000e+00  0.0000000000000000e+00 -1.0529001249495396e-02 0.0000000000000000e+00  0.0000000000000000e+00 -9.1279182484371203e-03 0.0000000000000000e+00  0.0000000000000000e+00 -7.3926715855551677e-03 0.0000000000000000e+00  0.0000000000000000e+00 -5.2438920966669271e-03 0.0000000000000000e+00  0.0000000000000000e+00 -2.5921040610591235e-03 0.0000000000000000e+00  0.0000000000000000e+00 6.5944876406075225e-04 0.0000000000000000e+00  0.0000000000000000e+00 4.6152413651195275e-03 0.0000000000000000e+00  0.0000000000000000e+00 9.3736242833906830e-03 0.0000000000000000e+00  0.0000000000000000e+00 1.4999988175484676e-02 0.0000000000000000e+00  0.0000000000000000e+00 2.1509627604090621e-02 0.0000000000000000e+00  0.0000000000000000e+00 2.8822004101593020e-02 0.0000000000000000e+00  0.0000000000000000e+00 3.6707929921143356e-02 0.0000000000000000e+00  0.0000000000000000e+00 4.4764769722146117e-02 0.0000000000000000e+00  0.0000000000000000e+00 5.2391764195559597e-02 0.0000000000000000e+00  0.0000000000000000e+00 5.8876054333184623e-02 0.0000000000000000e+00  0.0000000000000000e+00 6.3443440437599738e-02 0.0000000000000000e+00  0.0000000000000000e+00 6.5502689009056161e-02 0.0000000000000000e+00  0.0000000000000000e+00 6.4751514396042459e-02 0.0000000000000000e+00  0.0000000000000000e+00 6.1288833588381636e-02 0.0000000000000000e+00  0.0000000000000000e+00 5.5577813516349002e-02 0.0000000000000000e+00  0.0000000000000000e+00 4.8330421059717237e-02 0.0000000000000000e+00  0.0000000000000000e+00 4.0313509378851545e-02 0.0000000000000000e+00  0.0000000000000000e+00 3.2199688777022568e-02 0.0000000000000000e+00  0.0000000000000000e+00 2.4507777075777965e-02 0.0000000000000000e+00  0.0000000000000000e+00 1.7544230611265144e-02 0.0000000000000000e+00  0.0000000000000000e+00 1.1462799865506182e-02 0.0000000000000000e+00  0.0000000000000000e+00 6.2833230151566463e-03 0.0000000000000000e+00  0.0000000000000000e+00 1.9604459554826985e-03 0.0000000000000000e+00  0.0000000000000000e+00 -1.5995364322795749e-03 0.0000000000000000e+00  0.0000000000000000e+00 -4.5016290762828056e-03 0.0000000000000000e+00  0.0000000000000000e+00 -6.8520356140523804e-03 0.0000000000000000e+00  0.0000000000000000e+00 -8.7465084351182089e-03 0.0000000000000000e+00  0.0000000000000000e+00 -1.0269525891166642e-02 0.0000000000000000e+00  0.0000000000000000e+00 -1.1493826616636673e-02 0.0000000000000000e+00  0.0000000000000000e+00 -1.2478584049194944e-02 0.0000000000000000e+00  0.0000000000000000e+00 -1.3273850037350729e-02 0.0000000000000000e+00  0.0000000000000000e+00 -1.3919687822415339e-02 0.0000000000000000e+00  0.0000000000000000e+00 -1.4448981661559951e-02 0.0000000000000000e+00  0.0000000000000000e+00 -1.4888391814240976e-02 0.0000000000000000e+00  0.0000000000000000e+00 -1.5259513577011042e-02 0.0000000000000000e+00  0.0000000000000000e+00 -1.5580401628752912e-02 0.0000000000000000e+00  0.0000000000000000e+00 -1.5865906419305680e-02 0.0000000000000000e+00  0.0000000000000000e+00 -1.6128242990549470e-02 0.0000000000000000e+00  0.0000000000000000e+00 -1.6378047940510114e-02 0.0000000000000000e+00  0.0000000000000000e+00 -1.6625259727672786e-02 0.0000000000000000e+00  0.0000000000000000e+00 -1.6878136905231121e-02 0.0000000000000000e+00  0.0000000000000000e+00 -1.7145042905811377e-02 0.0000000000000000e+00  0.0000000000000000e+00 -1.7434745587437107e-02 0.0000000000000000e+00  0.0000000000000000e+00 -1.7756712037734847e-02 0.0000000000000000e+00  0.0000000000000000e+00 -1.8122126171226528e-02 0.0000000000000000e+00  0.0000000000000000e+00 -1.8545080936859082e-02 0.0000000000000000e+00  0.0000000000000000e+00 -1.9045059312334509e-02 0.0000000000000000e+00  0.0000000000000000e+00 -1.9649816612852793e-02 0.0000000000000000e+00  0.0000000000000000e+00 -2.0394435341057695e-02 0.0000000000000000e+00  0.0000000000000000e+00 -2.1319066271533373e-02 0.0000000000000000e+00  0.0000000000000000e+00 -2.2431796996013300e-02 0.0000000000000000e+00  1.2206130559364852e-03 -2.3297673938887677e-02 0.0000000000000000e+00  2.2427172862779336e-03 -2.2382890459891648e-02 0.0000000000000000e+00  2.9895102609589028e-03 -2.1316358307311774e-02 0.0000000000000000e+00  3.4925565813882673e-03 -2.0334064381006892e-02 0.0000000000000000e+00  3.8216698021465525e-03 -1.9499092288664706e-02 0.0000000000000000e+00  4.0357641703863099e-03 -1.8794753093173945e-02 0.0000000000000000e+00  4.1775946766421240e-03 -1.8186493520417648e-02 0.0000000000000000e+00  4.2720090173460224e-03 -1.7644834480809477e-02 0.0000000000000000e+00  4.3343138013273970e-03 -1.7148241528693292e-02 0.0000000000000000e+00  4.3739011367728850e-03 -1.6682059583031376e-02 0.0000000000000000e+00  4.3948283377266738e-03 -1.6236223653397188e-02 0.0000000000000000e+00  4.4017750398805079e-03 -1.5803204383434442e-02 0.0000000000000000e+00  4.3968148317878493e-03 -1.5378034165552329e-02 0.0000000000000000e+00  4.3815681599229080e-03 -1.4957047289745779e-02 0.0000000000000000e+00  4.3576759545910461e-03 -1.4537709900205970e-02 0.0000000000000000e+00  4.3254947515188628e-03 -1.4117940731496924e-02 0.0000000000000000e+00  4.2867830960003446e-03 -1.3696389040165711e-02 0.0000000000000000e+00  4.2418489870788764e-03 -1.3272344837498964e-02 0.0000000000000000e+00  4.1913620578154171e-03 -1.2845180525327772e-02 0.0000000000000000e+00  4.1364765555133793e-03 -1.2414806790000158e-02 0.0000000000000000e+00  4.0767190323288700e-03 -1.1981094203760477e-02 0.0000000000000000e+00  4.0136798183848356e-03 -1.1544142256966964e-02 0.0000000000000000e+00  3.9471681018387926e-03 -1.1104252385487881e-02 0.0000000000000000e+00  3.8777367029582291e-03 -1.0661688766356842e-02 0.0000000000000000e+00  3.8061975918997270e-03 -1.0216778823612393e-02 0.0000000000000000e+00  3.7319500956038494e-03 -9.7697988861739169e-03 0.0000000000000000e+00  3.6560303103722884e-03 -9.3209728026034892e-03 0.0000000000000000e+00  3.5785663818982448e-03 -8.8705333714123556e-03 0.0000000000000000e+00  3.4996386083014424e-03 -8.4187806074991246e-03 0.0000000000000000e+00  3.4195476740940260e-03 -7.9656041404328574e-03 0.0000000000000000e+00  3.3381717260394716e-03 -7.5111682762172101e-03 0.0000000000000000e+00  3.2565237240814535e-03 -7.0552298599675621e-03 0.0000000000000000e+00  3.1735868105189969e-03 -6.5977535373520678e-03 0.0000000000000000e+00  3.0907731887860955e-03 -6.1388260632931858e-03 0.0000000000000000e+00  3.0076742977372777e-03 -5.6793052335489778e-03 0.0000000000000000e+00  2.9257314734850060e-03 -5.2226701821217547e-03 0.0000000000000000e+00  2.8472124625914456e-03 -4.7814459225917179e-03 0.0000000000000000e+00  2.7742849954833985e-03 -4.3875414273511241e-03 0.0000000000000000e+00  2.7173635909922447e-03 -4.1062092689500389e-03 0.0000000000000000e+00  2.5411463035862249e-03 -4.0461448811202156e-03 0.0000000000000000e+00  2.2054397032136297e-03 -4.1102618050608509e-03 0.0000000000000000e+00  1.7778129491682032e-03 -4.1958928934074354e-03 0.0000000000000000e+00  1.3219328965407874e-03 -4.2954038828432947e-03 0.0000000000000000e+00  8.6479219333666522e-04 -4.4045947220479270e-03 0.0000000000000000e+00  4.1513988815655532e-04 -4.5202613838551753e-03 0.0000000000000000e+00  -2.4919768023873844e-05 -4.6423786185837189e-03 0.0000000000000000e+00  -4.5492153750805689e-04 -4.7686600781948751e-03 0.0000000000000000e+00  -8.7418783554969216e-04 -4.8994835577445151e-03 0.0000000000000000e+00  -1.2821179403279131e-03 -5.0336252376490054e-03 0.0000000000000000e+00  -1.6775806943867050e-03 -5.1723640203322242e-03 0.0000000000000000e+00  -2.0596377364420731e-03 -5.3138984554185120e-03 0.0000000000000000e+00  -2.4267828982186775e-03 -5.4585435096997752e-03 0.0000000000000000e+00  -2.7773420337297316e-03 -5.6056117506248105e-03 0.0000000000000000e+00  -3.1094823807832944e-03 -5.7555587914611302e-03 0.0000000000000000e+00  -3.4214353020725345e-03 -5.9069361294041304e-03 0.0000000000000000e+00  -3.7108860781453613e-03 -6.0596806914406560e-03 0.0000000000000000e+00  -3.9756238992799319e-03 -6.2131512520329172e-03 0.0000000000000000e+00  -4.2131188432503750e-03 -6.3667039302284269e-03 0.0000000000000000e+00  -4.4208231198209396e-03 -6.5195482224486810e-03 0.0000000000000000e+00  -4.5960188198997994e-03 -6.6711395585821558e-03 0.0000000000000000e+00  -4.7358933969684092e-03 -6.8206082433059151e-03 0.0000000000000000e+00  -4.8379073236111889e-03 -6.9668667287995905e-03 0.0000000000000000e+00  -4.8991446522914442e-03 -7.1094906330275362e-03 0.0000000000000000e+00  -4.9172418579235978e-03 -7.2474713329092359e-03 0.0000000000000000e+00  -4.8899100467676019e-03 -7.3799182666531311e-03 0.0000000000000000e+00  -4.8150950028267633e-03 -7.5061042461409613e-03 0.0000000000000000e+00  -4.6915893067620519e-03 -7.6252433139025327e-03 0.0000000000000000e+00  -4.5179196733934057e-03 -7.7368002682501394e-03 0.0000000000000000e+00  -4.2942629911075433e-03 -7.8400342062314131e-03 0.0000000000000000e+00  -4.0210037454113234e-03 -7.9345450110141613e-03 0.0000000000000000e+00  -3.6993336855409864e-03 -8.0199460702739117e-03 0.0000000000000000e+00  -3.3318125820207367e-03 -8.0959442517159318e-03 0.0000000000000000e+00  -2.9212795215263158e-03 -8.1620462773335078e-03 0.0000000000000000e+00  -2.4720988894316219e-03 -8.2185149958324023e-03 0.0000000000000000e+00  -1.9893076692128970e-03 -8.2649432939462530e-03 0.0000000000000000e+00  -1.4788984838134177e-03 -8.3014025572700160e-03 0.0000000000000000e+00  -9.4763038825477954e-04 -8.3279258589069819e-03 0.0000000000000000e+00  -4.0245408012472695e-04 -8.3441689391529888e-03 0.0000000000000000e+00  1.4901708592624224e-04 -8.3504445056906997e-03 0.0000000000000000e+00  6.9895759761229412e-04 -8.3463991257982269e-03 0.0000000000000000e+00  1.2394640583074761e-03 -8.3321108729436984e-03 0.0000000000000000e+00  1.7631693501647303e-03 -8.3074436517233223e-03 0.0000000000000000e+00  2.2631479096468501e-03 -8.2727921153954529e-03 0.0000000000000000e+00  2.7326552091395595e-03 -8.2269199487627377e-03 0.0000000000000000e+00  3.1667950583179577e-03 -8.1713458616253301e-03 0.0000000000000000e+00  3.5600564870527768e-03 -8.1050724434882978e-03 0.0000000000000000e+00  3.9091559854073001e-03 -8.0287690818437972e-03 0.0000000000000000e+00  4.2110387784293369e-03 -7.9424239007448074e-03 0.0000000000000000e+00  4.4639905951859796e-03 -7.8466560396176516e-03 0.0000000000000000e+00  4.6668076614816293e-03 -7.7418070309324405e-03 0.0000000000000000e+00  4.8196080342899046e-03 -7.6284576376675897e-03 0.0000000000000000e+00  4.9227627677750014e-03 -7.5071567517769186e-03 0.0000000000000000e+00  4.9776403918041561e-03 -7.3789007738722830e-03 0.0000000000000000e+00  4.9860619389381572e-03 -7.2443551083312824e-03 0.0000000000000000e+00  4.9498276708694975e-03 -7.1043163658331921e-03 0.0000000000000000e+00  4.8716793455585491e-03 -6.9598517093100460e-03 0.0000000000000000e+00  4.7541280804305093e-03 -6.8116917326155688e-03 0.0000000000000000e+00  4.5999457439162882e-03 -6.6607745051008279e-03 0.0000000000000000e+00  4.4119279063037390e-03 -6.5079084425326899e-03 0.0000000000000000e+00  4.1927407527874768e-03 -6.3540110408919640e-03 0.0000000000000000e+00  3.9450872930581003e-03 -6.1996328832067829e-03 0.0000000000000000e+00  3.6715513142510942e-03 -6.0456874075723198e-03 0.0000000000000000e+00  3.3746290692941144e-03 -5.8924029854964984e-03 0.0000000000000000e+00  3.0564539554160581e-03 -5.7409376469325221e-03 0.0000000000000000e+00  2.7191541304308841e-03 -5.5914470406649586e-03 0.0000000000000000e+00  2.3646813675585751e-03 -5.4442739535696966e-03 0.0000000000000000e+00  1.9946798836693778e-03 -5.3001806402186704e-03 0.0000000000000000e+00  1.6108303258965360e-03 -5.1590010337074586e-03 0.0000000000000000e+00  1.2143306923616587e-03 -5.0215320441140080e-03 0.0000000000000000e+00  8.0638349664804206e-04 -4.8874998138632476e-03 0.0000000000000000e+00  3.8795584652182187e-04 -4.7578069203901728e-03 0.0000000000000000e+00  -4.0276834939816164e-05 -4.6322548151533239e-03 0.0000000000000000e+00  -4.7779436167206803e-04 -4.5115864968571767e-03 0.0000000000000000e+00  -9.2394870535377892e-04 -4.3964983180494752e-03 0.0000000000000000e+00  -1.3764562131836496e-03 -4.2884153897889818e-03 0.0000000000000000e+00  -1.8258100632584351e-03 -4.1892557352113165e-03 0.0000000000000000e+00  -2.2443719417549815e-03 -4.1052031126596056e-03 0.0000000000000000e+00  -2.5701127133891696e-03 -4.0413469581936333e-03 0.0000000000000000e+00  -1.1472656914478628e-02 -1.2890187005918622e-02 0.0000000000000000e+00  5.1134611283137109e-03 -1.5982102621349005e-02 0.0000000000000000e+00  -2.2153130364174251e-03 -1.2606197788302423e-02 0.0000000000000000e+00  1.0739480488126296e-03 -1.0515571982709070e-02 0.0000000000000000e+00  -8.2438625147214896e-04 -1.5737046932236397e-02 0.0000000000000000e+00  6.4060065566015952e-03 -6.2257327034211031e-02 0.0000000000000000e+00  4.5249533363000234e-03 -6.5670810212616259e-03 0.0000000000000000e+00  2.2973572039164898e-04 -2.1039252937151927e-02 0.0000000000000000e+00  1.2325508066676073e-03 -1.6013367984088932e-02 0.0000000000000000e+00  -5.2606418865486140e-03 -9.2368410306576127e-03 0.0000000000000000e+00  -2.2591289109554929e-03 -1.9048779591340374e-02 0.0000000000000000e+00  4.3276516855451563e-03 -9.4558518122257879e-03 0.0000000000000000e+00  3.2754029304009148e-02 -7.5189394713279553e-02 0.0000000000000000e+00  -1.3904932617147731e-04 -8.7525674831836486e-03 0.0000000000000000e+00  -2.6311069971854738e-03 -6.4287967644196331e-03 0.0000000000000000e+00  1.2375837727777866e-03 -1.3057173463217333e-02 0.0000000000000000e+00  -3.2862733959395005e-03 -8.7759275558960109e-03 0.0000000000000000e+00  -1.4316871907811436e-03 -1.2983496559449010e-02 0.0000000000000000e+00  -6.0064162207027656e-03 -1.5346447786949834e-02 0.0000000000000000e+00  -5.8782132351410459e-04 -7.5807449789678429e-03 0.0000000000000000e+00  -2.0460783984953810e-03 -1.6840341944553805e-02 0.0000000000000000e+00  5.2455706896489341e-03 -7.1957142303698020e-03 0.0000000000000000e+00  1.5977456189246917e-03 -1.4167629889417895e-02 0.0000000000000000e+00  -1.7045999668758360e-02 -2.3069138791288121e-02 0.0000000000000000e+00  4.5569378850072667e-03 -7.8670863502888645e-03 0.0000000000000000e+00  1.5448542013690350e-03 -1.6711314707639792e-02 0.0000000000000000e+00  1.0858834931829877e-02 -1.8123588404210696e-02 0.0000000000000000e+00  1.3021738478108280e-02 -2.0520566594946235e-02 0.0000000000000000e+00  -9.1229402482520343e-04 -1.6094680577776493e-02 0.0000000000000000e+00  -1.3043296363003051e-03 -1.6363787992137689e-02 0.0000000000000000e+00  2.7054902787341079e-03 -8.0453193706396513e-03 0.0000000000000000e+00  -3.2803272667593662e-02 -1.1092722076352994e-02 0.0000000000000000e+00  6.5417839852892849e-03 -1.0578346218713699e-02 0.0000000000000000e+00  2.0450195885517012e-03 -1.7179561556507406e-02 0.0000000000000000e+00  1.3361699724983485e-03 -6.7569480820067352e-03 0.0000000000000000e+00  -6.4348563597331869e-03 -2.9999404534903462e-02 0.0000000000000000e+00  1.4075462703300389e-03 -2.6360131531785663e-02 0.0000000000000000e+00  -1.7261914493358920e-03 -1.0257353185638808e-02 0.0000000000000000e+00  -2.5957728741865479e-03 -1.5006458449514502e-02 0.0000000000000000e+00  -4.