<?xml version="1.0"?>
<VTKFile type="UnstructuredGrid"  version="0.1"  >
<UnstructuredGrid>
<Piece  NumberOfPoints="4372" NumberOfCells="8502">
<Points>
<DataArray  type="Float64"  NumberOfComponents="3"  format="ascii">-2 2 0  0 2 0  0 -2 0  -2 -2 0  -1.949999999999792 2 0  -1.899999999999584 2 0  -1.849999999999375 2 0  -1.799999999999167 2 0  -1.749999999999002 2 0  -1.699999999999306 2 0  -1.649999999999653 2 0  -1.6 2 0  -1.550000000000346 2 0  -1.500000000000693 2 0  -1.45000000000104 2 0  -1.400000000001387 2 0  -1.350000000001733 2 0  -1.30000000000208 2 0  -1.250000000002427 2 0  -1.200000000002774 2 0  -1.150000000003121 2 0  -1.100000000003467 2 0  -1.050000000003814 2 0  -1.000000000004117 2 0  -0.9500000000039528 2 0  -0.9000000000037447 2 0  -0.8500000000035368 2 0  -0.8000000000033287 2 0  -0.7500000000031206 2 0  -0.7000000000029127 2 0  -0.6500000000027044 2 0  -0.6000000000024965 2 0  -0.5500000000022884 2 0  -0.5000000000020806 2 0  -0.4500000000018725 2 0  -0.4000000000016644 2 0  -0.3500000000014563 2 0  -0.3000000000012482 2 0  -0.2500000000010403 2 0  -0.200000000000832 2 0  -0.1500000000006243 2 0  -0.100000000000416 2 0  -0.0500000000002081 2 0  0 1.950000000000139 0  0 1.900000000000277 0  0 1.850000000000416 0  0 1.800000000000555 0  0 1.750000000000693 0  0 1.700000000000832 0  0 1.650000000000971 0  0 1.60000000000111 0  0 1.550000000001248 0  0 1.500000000001387 0  0 1.450000000001526 0  0 1.400000000001664 0  0 1.350000000001803 0  0 1.300000000001942 0  0 1.250000000002081 0  0 1.200000000002219 0  0 1.150000000002358 0  0 1.100000000002496 0  0 1.050000000002635 0  0 1.000000000002774 0  0 0.9500000000029125 0  0 0.9000000000030515 0  0 0.8500000000031902 0  0 0.8000000000033287 0  0 0.7500000000034674 0  0 0.7000000000036062 0  0 0.6500000000037449 0  0 0.6000000000038836 0  0 0.5500000000040224 0  0 0.5000000000041611 0  0 0.4500000000042998 0  0 0.4000000000044384 0  0 0.3500000000045771 0  0 0.3000000000047156 0  0 0.2500000000048543 0  0 0.2000000000049929 0  0 0.1500000000051318 0  0 0.1000000000052705 0  0 0.05000000000540905 0  0 5.504485756091526e-12 0  0 -0.04999999999459082 0  0 -0.09999999999472964 0  0 -0.149999999994868 0  0 -0.1999999999950068 0  0 -0.2499999999951457 0  0 -0.299999999995284 0  0 -0.3499999999954229 0  0 -0.3999999999955617 0  0 -0.4499999999957001 0  0 -0.4999999999958389 0  0 -0.5499999999959777 0  0 -0.5999999999961165 0  0 -0.6499999999962549 0  0 -0.6999999999963937 0  0 -0.7499999999965326 0  0 -0.7999999999966709 0  0 -0.8499999999968098 0  0 -0.8999999999969486 0  0 -0.949999999997087 0  0 -0.9999999999972258 0  0 -1.049999999997365 0  0 -1.099999999997503 0  0 -1.149999999997642 0  0 -1.199999999997781 0  0 -1.249999999997919 0  0 -1.299999999998058 0  0 -1.349999999998198 0  0 -1.399999999998336 0  0 -1.449999999998474 0  0 -1.499999999998613 0  0 -1.549999999998751 0  0 -1.599999999998891 0  0 -1.64999999999903 0  0 -1.699999999999168 0  0 -1.749999999999306 0  0 -1.799999999999445 0  0 -1.849999999999584 0  0 -1.899999999999723 0  0 -1.949999999999862 0  -0.04999999999990573 -2 0  -0.0999999999997993 -2 0  -0.1499999999997056 -2 0  -0.1999999999996293 -2 0  -0.2499999999995475 -2 0  -0.2999999999994072 -2 0  -0.3499999999992615 -2 0  -0.3999999999991157 -2 0  -0.44999999999897 -2 0  -0.4999999999988242 -2 0  -0.5499999999986784 -2 0  -0.5999999999985328 -2 0  -0.649999999998387 -2 0  -0.6999999999982413 -2 0  -0.7499999999980955 -2 0  -0.7999999999979498 -2 0  -0.8499999999978042 -2 0  -0.8999999999976585 -2 0  -0.9499999999975127 -2 0  -0.9999999999973885 -2 0  -1.049999999997498 -2 0  -1.09999999999763 -2 0  -1.149999999997762 -2 0  -1.199999999997894 -2 0  -1.249999999998025 -2 0  -1.299999999998157 -2 0  -1.349999999998289 -2 0  -1.39999999999842 -2 0  -1.449999999998552 -2 0  -1.499999999998683 -2 0  -1.549999999998815 -2 0  -1.599999999998947 -2 0  -1.649999999999078 -2 0  -1.69999999999921 -2 0  -1.749999999999342 -2 0  -1.799999999999474 -2 0  -1.849999999999605 -2 0  -1.899999999999737 -2 0  -1.949999999999869 -2 0  -2 -1.950000000000139 0  -2 -1.900000000000277 0  -2 -1.850000000000416 0  -2 -1.800000000000555 0  -2 -1.750000000000693 0  -2 -1.700000000000832 0  -2 -1.650000000000971 0  -2 -1.60000000000111 0  -2 -1.550000000001248 0  -2 -1.500000000001387 0  -2 -1.450000000001526 0  -2 -1.400000000001664 0  -2 -1.350000000001803 0  -2 -1.300000000001942 0  -2 -1.250000000002081 0  -2 -1.200000000002219 0  -2 -1.150000000002358 0  -2 -1.100000000002496 0  -2 -1.050000000002635 0  -2 -1.000000000002774 0  -2 -0.9500000000029125 0  -2 -0.9000000000030515 0  -2 -0.8500000000031902 0  -2 -0.8000000000033287 0  -2 -0.7500000000034674 0  -2 -0.7000000000036062 0  -2 -0.6500000000037449 0  -2 -0.6000000000038836 0  -2 -0.5500000000040224 0  -2 -0.5000000000041611 0  -2 -0.4500000000042998 0  -2 -0.4000000000044384 0  -2 -0.3500000000045771 0  -2 -0.3000000000047156 0  -2 -0.2500000000048543 0  -2 -0.2000000000049929 0  -2 -0.1500000000051318 0  -2 -0.1000000000052705 0  -2 -0.05000000000540905 0  -2 -5.504485756091526e-12 0  -2 0.04999999999459082 0  -2 0.09999999999472964 0  -2 0.149999999994868 0  -2 0.1999999999950068 0  -2 0.2499999999951457 0  -2 0.299999999995284 0  -2 0.3499999999954229 0  -2 0.3999999999955617 0  -2 0.4499999999957001 0  -2 0.4999999999958389 0  -2 0.5499999999959777 0  -2 0.5999999999961165 0  -2 0.6499999999962549 0  -2 0.6999999999963937 0  -2 0.7499999999965326 0  -2 0.7999999999966709 0  -2 0.8499999999968098 0  -2 0.8999999999969486 0  -2 0.949999999997087 0  -2 0.9999999999972258 0  -2 1.049999999997365 0  -2 1.099999999997503 0  -2 1.149999999997642 0  -2 1.199999999997781 0  -2 1.249999999997919 0  -2 1.299999999998058 0  -2 1.349999999998198 0  -2 1.399999999998336 0  -2 1.449999999998474 0  -2 1.499999999998613 0  -2 1.549999999998751 0  -2 1.599999999998891 0  -2 1.64999999999903 0  -2 1.699999999999168 0  -2 1.749999999999306 0  -2 1.799999999999445 0  -2 1.849999999999584 0  -2 1.899999999999723 0  -2 1.949999999999862 0  -0.9991019297010011 -0.3216894116769606 0  -1.001123860021573 0.7747860510049681 0  -1.157001840564423 -1.161067247012082 0  -1.338027560051535 1.335779534439809 0  -0.6597222222209854 1.340277777778947 0  -0.6585505322915344 0.2210104638722434 0  -1.342670381551713 0.2273264508688188 0  -0.6282204758073073 -0.8120080430170664 0  -0.584236517600881 -1.424312893620663 0  -1.444216308265114 -0.6762220291217811 0  -0.5052068177397626 0.8617966625436217 0  -1.495725541732084 0.8726406067560636 0  -0.5012956875285356 -0.2537377131698332 0  -1.505964779037762 -1.506864731248248 0  -1.533439101629034 -0.2141932377592857 0  -0.9980909254944228 -1.563025322244478 0  -1.573871097078973 -1.076090339205781 0  -0.9938363905916023 1.574658399668859 0  -1.034823301857025 -0.7463046737786232 0  -1.613643420611705 1.613643420611667 0  -0.3789826634893113 1.622833641383097 0  -0.9969623469406674 0.06224895986291776 0  -0.9977570821219073 1.152964911765466 0  -0.3827586671415756 0.4981078379584384 0  -1.617241332858342 0.4981078379584687 0  -0.3735162279179589 -1.10055932464888 0  -0.9514697352838486 0.4195344991084976 0  -0.3671724871528862 -0.5890291676826473 0  -0.8024708669961921 -1.130631989953667 0  -0.3498086031259764 1.176326426441 0  -1.654591699695181 1.175475929606857 0  -0.3418462529951587 0.05839036814553086 0  -1.276352049535552 0.5646214960700082 0  -0.3455726757630372 -1.654274000872155 0  -1.662000930981631 0.09800841401402562 0  -0.7326605900058469 -0.5029780286614124 0  -0.6815317218188973 0.6015493889244842 0  -1.294915051768271 1.68349586060536 0  -0.6978609120161386 1.682418596511037 0  -1.69042813419972 -0.4820149800903958 0  -0.7177378365368432 -1.691938564923942 0  -1.295041566734205 -0.3964989221993158 0  -1.257425593209587 -1.693594420665469 0  -1.246383246782414 -0.1148360514526407 0  -0.7362449271051545 -0.05964032805167522 0  -1.707983706106591 -0.8099422821034401 0  -0.7716224277305496 0.9720234774828133 0  -1.275827556233888 1.059370830779667 0  -1.709731219610966 -1.713515019749574 0  -0.283604077223767 -1.378462113197051 0  -1.331628086330126 -0.9256871504417986 0  -1.718803648671523 -1.313287096736098 0  -1.237157326776588 -1.417624750871973 0  -0.2754377852160807 -0.8405670548436512 0  -0.2604914310470714 0.745077019249353 0  -1.729633983752603 0.7365041208839631 0  -0.2591591556650803 -0.3445128723686334 0  -0.2497705497594995 0.2862378673199174 0  -0.2571319926197782 1.401471300128245 0  -1.750457518478978 1.404891698644917 0  -0.8313391195977098 -1.383947161511035 0  -1.24247470005791 0.8083576983762071 0  -1.75762809210058 -0.121394575294928 0  -1.436009639427774 -1.277692839795198 0  -0.9951285024698884 -0.9801850598617781 0  -0.5860531098993602 1.102916873865959 0  -1.107154037528234 1.367740498542844 0  -1.765353655027761 0.3139359895551974 0  -0.239693234576285 0.9675382248711792 0  -1.762311524625569 0.9715314837693784 0  -1.453060458314344 0.01668426334404738 0  -1.118216683883963 0.2510494134873997 0  -1.487314750788142 -1.768895281943666 0  -0.775695807447912 -0.2851187916602083 0  -1.775021992875828 1.773058151300929 0  -0.2244440016626344 1.771853493176412 0  -0.8797519944267721 1.389822301404418 0  -1.220958717521525 -0.6178523500889427 0  -0.59343770640056 -1.180817576357191 0  -0.9262618789157869 -1.776942446977449 0  -0.2205428235968764 -0.1260615883490472 0  -1.10972339161439 1.777127575560661 0  -0.9394997616645768 -0.5365790009321401 0  -0.812081892264416 -0.7153463049796221 0  -1.783917055200667 -1.008716696077253 0  -0.515263853692324 -1.788606832309386 0  -0.8883686379713935 1.780240085569055 0  -1.545545177082075 0.2916466799431231 0  -1.490071498349099 1.777107893879804 0  -0.5133806951054479 1.777756514587614 0  -1.042544744196485 -1.335739934857762 0  -0.8641039527440014 0.2249999999994 0  -1.475046450324973 0.6546028915744984 0  -1.529677928948796 1.412892352790367 0  -0.4613578028330296 1.41527900122371 0  -1.790928681625402 -1.
[...]
<PointData  Vectors="f_31-0"> 
<DataArray  type="Float64"  Name="f_31-0"  NumberOfComponents="3" format="ascii">-2.4813652985424517e-03 -4.4228458613698035e-03 0.0000000000000000e+00  0.0000000000000000e+00 -2.2580631705721759e-02 0.0000000000000000e+00  0.0000000000000000e+00 -2.2334731704009955e-02 0.0000000000000000e+00  2.4215112941591193e-03 -4.4388937112389091e-03 0.0000000000000000e+00  -2.5053761324998628e-03 -4.4741423783501494e-03 0.0000000000000000e+00  -2.5522618288225983e-03 -4.6534648296085107e-03 0.0000000000000000e+00  -2.6144236491358157e-03 -4.9415317526749006e-03 0.0000000000000000e+00  -2.6856233079038810e-03 -5.3044206327009782e-03 0.0000000000000000e+00  -2.7629581216080776e-03 -5.7115411639943828e-03 0.0000000000000000e+00  -2.8436009058344690e-03 -6.1413084714233134e-03 0.0000000000000000e+00  -2.9260422088664075e-03 -6.5813652790793330e-03 0.0000000000000000e+00  -3.0091761159065011e-03 -7.0253875389192427e-03 0.0000000000000000e+00  -3.0922800865068193e-03 -7.4705868452029202e-03 0.0000000000000000e+00  -3.1748535822376644e-03 -7.9157370246796394e-03 0.0000000000000000e+00  -3.2566261395120268e-03 -8.3603174705039456e-03 0.0000000000000000e+00  -3.3372390085211587e-03 -8.8040150813256460e-03 0.0000000000000000e+00  -3.4165026700445030e-03 -9.2466113523595548e-03 0.0000000000000000e+00  -3.4941713855360292e-03 -9.6878909265662033e-03 0.0000000000000000e+00  -3.5698648854701012e-03 -1.0127588581211750e-02 0.0000000000000000e+00  -3.6433598675779527e-03 -1.0565441061325249e-02 0.0000000000000000e+00  -3.7143223559961227e-03 -1.1001221789052738e-02 0.0000000000000000e+00  -3.7822188304505486e-03 -1.1434646908625735e-02 0.0000000000000000e+00  -3.8466668664849861e-03 -1.1865560667738658e-02 0.0000000000000000e+00  -3.9071120334282713e-03 -1.2293841381039932e-02 0.0000000000000000e+00  -3.9629310501422014e-03 -1.2719526781666213e-02 0.0000000000000000e+00  -4.0134365694122591e-03 -1.3142852279513248e-02 0.0000000000000000e+00  -4.0578008392373579e-03 -1.3564262281491095e-02 0.0000000000000000e+00  -4.0949825820533921e-03 -1.3984584365505086e-02 0.0000000000000000e+00  -4.1239762704021587e-03 -1.4405071449645812e-02 0.0000000000000000e+00  -4.1432904258342845e-03 -1.4827568168572438e-02 0.0000000000000000e+00  -4.1511432370860291e-03 -1.5254638630972863e-02 0.0000000000000000e+00  -4.1452112497955829e-03 -1.5689936730728226e-02 0.0000000000000000e+00  -4.1222760295056976e-03 -1.6138447277631734e-02 0.0000000000000000e+00  -4.0778300418680847e-03 -1.6606935745599669e-02 0.0000000000000000e+00  -4.0055544160429975e-03 -1.7104442036740265e-02 0.0000000000000000e+00  -3.8963484429850870e-03 -1.7642600234985904e-02 0.0000000000000000e+00  -3.7376114357059597e-03 -1.8234498833911188e-02 0.0000000000000000e+00  -3.5131002736862520e-03 -1.8892814525936715e-02 0.0000000000000000e+00  -3.2025932023927815e-03 -1.9622068112548602e-02 0.0000000000000000e+00  -2.7856238219841206e-03 -2.0406983469360384e-02 0.0000000000000000e+00  -2.2485570022899729e-03 -2.1198428912376097e-02 0.0000000000000000e+00  -1.5859343733573396e-03 -2.1902598355956249e-02 0.0000000000000000e+00  -8.2282093581108524e-04 -2.2399756544047644e-02 0.0000000000000000e+00  0.0000000000000000e+00 -2.1748626295935217e-02 0.0000000000000000e+00  0.0000000000000000e+00 -2.0944363407992900e-02 0.0000000000000000e+00  0.0000000000000000e+00 -2.0197160096028604e-02 0.0000000000000000e+00  0.0000000000000000e+00 -1.9528617127651304e-02 0.0000000000000000e+00  0.0000000000000000e+00 -1.8946503868507880e-02 0.0000000000000000e+00  0.0000000000000000e+00 -1.8445343484263157e-02 0.0000000000000000e+00  0.0000000000000000e+00 -1.8013766676573270e-02 0.0000000000000000e+00  0.0000000000000000e+00 -1.7638789739605476e-02 0.0000000000000000e+00  0.0000000000000000e+00 -1.7308314965234776e-02 0.0000000000000000e+00  0.0000000000000000e+00 -1.7011911986976404e-02 0.0000000000000000e+00  0.0000000000000000e+00 -1.6740351110000818e-02 0.0000000000000000e+00  0.0000000000000000e+00 -1.6485157230761570e-02 0.0000000000000000e+00  0.0000000000000000e+00 -1.6238442937602592e-02 0.0000000000000000e+00  0.0000000000000000e+00 -1.5991849067974264e-02 0.0000000000000000e+00  0.0000000000000000e+00 -1.5737095916287382e-02 0.0000000000000000e+00  0.0000000000000000e+00 -1.5464217275552798e-02 0.0000000000000000e+00  0.0000000000000000e+00 -1.5162284963737194e-02 0.0000000000000000e+00  0.0000000000000000e+00 -1.4818443591486707e-02 0.0000000000000000e+00  0.0000000000000000e+00 -1.4417015633715648e-02 0.0000000000000000e+00  0.0000000000000000e+00 -1.3939485496943895e-02 0.0000000000000000e+00  0.0000000000000000e+00 -1.3363314370536127e-02 0.0000000000000000e+00  0.0000000000000000e+00 -1.2660592826932042e-02 0.0000000000000000e+00  0.0000000000000000e+00 -1.1797908566240817e-02 0.0000000000000000e+00  0.0000000000000000e+00 -1.0734257533394891e-02 0.0000000000000000e+00  0.0000000000000000e+00 -9.4192591870580090e-03 0.0000000000000000e+00  0.0000000000000000e+00 -7.7958022091055568e-03 0.0000000000000000e+00  0.0000000000000000e+00 -5.7930513980918273e-03 0.0000000000000000e+00  0.0000000000000000e+00 -3.3316188454393706e-03 0.0000000000000000e+00  0.0000000000000000e+00 -3.2705520659382221e-04 0.0000000000000000e+00  0.0000000000000000e+00 3.3099055490335085e-03 0.0000000000000000e+00  0.0000000000000000e+00 7.6590282113673143e-03 0.0000000000000000e+00  0.0000000000000000e+00 1.2766531234272674e-02 0.0000000000000000e+00  0.0000000000000000e+00 1.8630826129763158e-02 0.0000000000000000e+00  0.0000000000000000e+00 2.5164348555740661e-02 0.0000000000000000e+00  0.0000000000000000e+00 3.2151553037304333e-02 0.0000000000000000e+00  0.0000000000000000e+00 3.9238369727010086e-02 0.0000000000000000e+00  0.0000000000000000e+00 4.5923314226231186e-02 0.0000000000000000e+00  0.0000000000000000e+00 5.1627501297831307e-02 0.0000000000000000e+00  0.0000000000000000e+00 5.5738746668837519e-02 0.0000000000000000e+00  0.0000000000000000e+00 5.7776371813948520e-02 0.0000000000000000e+00  0.0000000000000000e+00 5.7477565076597209e-02 0.0000000000000000e+00  0.0000000000000000e+00 5.4865568059138621e-02 0.0000000000000000e+00  0.0000000000000000e+00 5.0255762523933364e-02 0.0000000000000000e+00  0.0000000000000000e+00 4.4165234554005332e-02 0.0000000000000000e+00  0.0000000000000000e+00 3.7208757569001390e-02 0.0000000000000000e+00  0.0000000000000000e+00 2.9972967312002264e-02 0.0000000000000000e+00  0.0000000000000000e+00 2.2943654263576703e-02 0.0000000000000000e+00  0.0000000000000000e+00 1.6449311756899298e-02 0.0000000000000000e+00  0.0000000000000000e+00 1.0682465556830254e-02 0.0000000000000000e+00  0.0000000000000000e+00 5.7078930691657438e-03 0.0000000000000000e+00  0.0000000000000000e+00 1.5144296442994288e-03 0.0000000000000000e+00  0.0000000000000000e+00 -1.9638733587383998e-03 0.0000000000000000e+00  0.0000000000000000e+00 -4.8127985707310137e-03 0.0000000000000000e+00  0.0000000000000000e+00 -7.1274064965500547e-03 0.0000000000000000e+00  0.0000000000000000e+00 -8.9960655813874513e-03 0.0000000000000000e+00  0.0000000000000000e+00 -1.0499015981246208e-02 0.0000000000000000e+00  0.0000000000000000e+00 -1.1706439208641803e-02 0.0000000000000000e+00  0.0000000000000000e+00 -1.2676307641633402e-02 0.0000000000000000e+00  0.0000000000000000e+00 -1.3457533728200318e-02 0.0000000000000000e+00  0.0000000000000000e+00 -1.4090128264004832e-02 0.0000000000000000e+00  0.0000000000000000e+00 -1.4606560019326264e-02 0.0000000000000000e+00  0.0000000000000000e+00 -1.5033431417934192e-02 0.0000000000000000e+00  0.0000000000000000e+00 -1.5392212849358055e-02 0.0000000000000000e+00  0.0000000000000000e+00 -1.5700893685485828e-02 0.0000000000000000e+00  0.0000000000000000e+00 -1.5974216269414442e-02 0.0000000000000000e+00  0.0000000000000000e+00 -1.6224275739437612e-02 0.0000000000000000e+00  0.0000000000000000e+00 -1.6461612365820825e-02 0.0000000000000000e+00  0.0000000000000000e+00 -1.6695789639530303e-02 0.0000000000000000e+00  0.0000000000000000e+00 -1.6934965043419140e-02 0.0000000000000000e+00  0.0000000000000000e+00 -1.7186992007320299e-02 0.0000000000000000e+00  0.0000000000000000e+00 -1.7460123734639930e-02 0.0000000000000000e+00  0.0000000000000000e+00 -1.7762876749313480e-02 0.0000000000000000e+00  0.0000000000000000e+00 -1.8104779208216369e-02 0.0000000000000000e+00  0.0000000000000000e+00 -1.8496635123233150e-02 0.0000000000000000e+00  0.0000000000000000e+00 -1.8950692574496747e-02 0.0000000000000000e+00  0.0000000000000000e+00 -1.9479333532940221e-02 0.0000000000000000e+00  0.0000000000000000e+00 -2.0090201600804568e-02 0.0000000000000000e+00  0.0000000000000000e+00 -2.0782957438437666e-02 0.0000000000000000e+00  0.0000000000000000e+00 -2.1540775385342874e-02 0.0000000000000000e+00  7.8818859122786419e-04 -2.2178670594606931e-02 0.0000000000000000e+00  1.5213484360768680e-03 -2.1747400377433532e-02 0.0000000000000000e+00  2.1584701563937408e-03 -2.1129720295798946e-02 0.0000000000000000e+00  2.6803380218050274e-03 -2.0426457586694403e-02 0.0000000000000000e+00  3.0883343035307681e-03 -1.9716364982167601e-02 0.0000000000000000e+00  3.3950125001488383e-03 -1.9043593749429131e-02 0.0000000000000000e+00  3.6198548429523724e-03 -1.8424231070651255e-02 0.0000000000000000e+00  3.7805978296131877e-03 -1.7857048618553386e-02 0.0000000000000000e+00  3.8927106150422859e-03 -1.7333485421374483e-02 0.0000000000000000e+00  3.9681839749343938e-03 -1.6843517602420203e-02 0.0000000000000000e+00  4.0151078275635112e-03 -1.6378012052864543e-02 0.0000000000000000e+00  4.0402538749161445e-03 -1.5929343674368733e-02 0.0000000000000000e+00  4.0479952951992526e-03 -1.5491699647008604e-02 0.0000000000000000e+00  4.0415776324600567e-03 -1.5060701778079272e-02 0.0000000000000000e+00  4.0235740247019022e-03 -1.4633173330959155e-02 0.0000000000000000e+00  3.9955820211033926e-03 -1.4206727329045240e-02 0.0000000000000000e+00  3.9594340878114928e-03 -1.3779731988441006e-02 0.0000000000000000e+00  3.9161947841252773e-03 -1.3351098324338498e-02 0.0000000000000000e+00  3.8668791423822338e-03 -1.2920070343496064e-02 0.0000000000000000e+00  3.8125228888893858e-03 -1.2486332849002479e-02 0.0000000000000000e+00  3.7534889509748979e-03 -1.2049714247055534e-02 0.0000000000000000e+00  3.6907927615541080e-03 -1.1610258971380424e-02 0.0000000000000000e+00  3.6247629164429789e-03 -1.1168133043879848e-02 0.0000000000000000e+00  3.5559116638252857e-03 -1.0723559441434494e-02 0.0000000000000000e+00  3.4847700947006335e-03 -1.0276816352573678e-02 0.0000000000000000e+00  3.4113498233703395e-03 -9.8282029243472596e-03 0.0000000000000000e+00  3.3361878562780454e-03 -9.3779585673080743e-03 0.0000000000000000e+00  3.2594947174273145e-03 -8.9263253045242050e-03 0.0000000000000000e+00  3.1814309662473940e-03 -8.4735385589398294e-03 0.0000000000000000e+00  3.1022380744969431e-03 -8.0197200567371455e-03 0.0000000000000000e+00  3.0220388936348657e-03 -7.5651428957207766e-03 0.0000000000000000e+00  2.9413816379999999e-03 -7.1102100525233308e-03 0.0000000000000000e+00  2.8602965324845725e-03 -6.6560672810419526e-03 0.0000000000000000e+00  2.7797930849490903e-03 -6.2055325160779518e-03 0.0000000000000000e+00  2.7006195094053439e-03 -5.7649671353466082e-03 0.0000000000000000e+00  2.6245457622371287e-03 -5.3471201969732254e-03 0.0000000000000000e+00  2.5541513137406946e-03 -4.9742602737372606e-03 0.0000000000000000e+00  2.4923854777644055e-03 -4.6777435874506817e-03 0.0000000000000000e+00  2.4458251450159810e-03 -4.4923351895624275e-03 0.0000000000000000e+00  2.3188375193569995e-03 -4.4641006955878351e-03 0.0000000000000000e+00  2.0681196632107660e-03 -4.5150651226693100e-03 0.0000000000000000e+00  1.7162538883654360e-03 -4.5855110395968228e-03 0.0000000000000000e+00  1.3056270540554289e-03 -4.6707827503361362e-03 0.0000000000000000e+00  8.6782760246927472e-04 -4.7676579249303014e-03 0.0000000000000000e+00  4.2316116839116556e-04 -4.8734091375916928e-03 0.0000000000000000e+00  -1.7570180053329433e-05 -4.9865026887698548e-03 0.0000000000000000e+00  -4.4929978660337945e-04 -5.1051152557129251e-03 0.0000000000000000e+00  -8.6959155853632696e-04 -5.2284578091090789e-03 0.0000000000000000e+00  -1.2771870165147294e-03 -5.3554659796247635e-03 0.0000000000000000e+00  -1.6709498965523256e-03 -5.4859773337437258e-03 0.0000000000000000e+00  -2.0498454901756781e-03 -5.6190042876446316e-03 0.0000000000000000e+00  -2.4124871064355805e-03 -5.7541744821934726e-03 0.0000000000000000e+00  -2.7573713130145069e-03 -5.8908527806748445e-03 0.0000000000000000e+00  -3.0826893642225562e-03 -6.0287613955027942e-03 0.0000000000000000e+00  -3.3866157060552346e-03 -6.1669721905447290e-03 0.0000000000000000e+00  -3.6669976076137835e-03 -6.3049832285048835e-03 0.0000000000000000e+00  -3.9216136412918668e-03 -6.4420841150760952e-03 0.0000000000000000e+00  -4.1480317394256803e-03 -6.5775475889123238e-03 0.0000000000000000e+00  -4.3437989553644562e-03 -6.7105578676252987e-03 0.0000000000000000e+00  -4.5063345193034291e-03 -6.8405012807790959e-03 0.0000000000000000e+00  -4.6329757304464040e-03 -6.9664687672628981e-03 0.0000000000000000e+00  -4.7213079180535196e-03 -7.0876605978769528e-03 0.0000000000000000e+00  -4.7687073510786528e-03 -7.2034926078831038e-03 0.0000000000000000e+00  -4.7729847121965830e-03 -7.3132818664563169e-03 0.0000000000000000e+00  -4.7321310321872092e-03 -7.4163722796286597e-03 0.0000000000000000e+00  -4.6444303148543697e-03 -7.5123312531774362e-03 0.0000000000000000e+00  -4.5088788143292880e-03 -7.6007464596111645e-03 0.0000000000000000e+00  -4.3244890503346348e-03 -7.6814988587619367e-03 0.0000000000000000e+00  -4.0915895518361554e-03 -7.7543605647070885e-03 0.0000000000000000e+00  -3.8109345385490771e-03 -7.8194387895485478e-03 0.0000000000000000e+00  -3.4840084001716118e-03 -7.8769009861007662e-03 0.0000000000000000e+00  -3.1134460016142445e-03 -7.9269539022946318e-03 0.0000000000000000e+00  -2.7024330840418405e-03 -7.9698559663645193e-03 0.0000000000000000e+00  -2.2553950409834839e-03 -8.0061103036456662e-03 0.0000000000000000e+00  -1.7774160834774881e-03 -8.0359512477012462e-03 0.0000000000000000e+00  -1.2743352012993961e-03 -8.0597635215586827e-03 0.0000000000000000e+00  -7.5273918752177295e-04 -8.0777669627721052e-03 0.0000000000000000e+00  -2.1957102610581565e-04 -8.0900199915432749e-03 0.0000000000000000e+00  3.1781250014713692e-04 -8.0966493140317737e-03 0.0000000000000000e+00  8.5196216996544694e-04 -8.0974845169838258e-03 0.0000000000000000e+00  1.3754740790099412e-03 -8.0923330043768445e-03 0.0000000000000000e+00  1.8812748486335417e-03 -8.0807700628540424e-03 0.0000000000000000e+00  2.3628055172359827e-03 -8.0626683394129980e-03 0.0000000000000000e+00  2.8137585770834127e-03 -8.0369495530560296e-03 0.0000000000000000e+00  3.2293857806342799e-03 -8.0038270508300206e-03 0.0000000000000000e+00  3.6047701110539284e-03 -7.9624662288063554e-03 0.0000000000000000e+00  3.9366892836241547e-03 -7.9126692383799640e-03 0.0000000000000000e+00  4.2224166141817667e-03 -7.8540653309132936e-03 0.0000000000000000e+00  4.4603688474727033e-03 -7.7866626723114441e-03 0.0000000000000000e+00  4.6494928568369268e-03 -7.7104244008887263e-03 0.0000000000000000e+00  4.7898975782692697e-03 -7.6254910430705383e-03 0.0000000000000000e+00  4.8820696123523036e-03 -7.5321204221440443e-03 0.0000000000000000e+00  4.9272962874540522e-03 -7.4309012233488812e-03 0.0000000000000000e+00  4.9273112455073724e-03 -7.3223586915840723e-03 0.0000000000000000e+00  4.8839863120645616e-03 -7.2070279745940014e-03 0.0000000000000000e+00  4.7998512505819874e-03 -7.0858585322173661e-03 0.0000000000000000e+00  4.6773688410175667e-03 -6.9595422619254926e-03 0.0000000000000000e+00  4.5191931223026380e-03 -6.8289132364607649e-03 0.0000000000000000e+00  4.3280027059040185e-03 -6.6948584174056098e-03 0.0000000000000000e+00  4.1063982761555930e-03 -6.5581620547005490e-03 0.0000000000000000e+00  3.8569682789737041e-03 -6.4196122210916596e-03 0.0000000000000000e+00  3.5821940707635117e-03 -6.2800426281682765e-03 0.0000000000000000e+00  3.2844419547312645e-03 -6.1400516436124512e-03 0.0000000000000000e+00  2.9658003343263129e-03 -6.0004637238918745e-03 0.0000000000000000e+00  2.6283196373115877e-03 -5.8618153139347899e-03 0.0000000000000000e+00  2.2738049730093263e-03 -5.7246300706787403e-03 0.0000000000000000e+00  1.9038681840637826e-03 -5.5895197117491859e-03 0.0000000000000000e+00  1.5199847966670111e-03 -5.4568678940198631e-03 0.0000000000000000e+00  1.1233370105156316e-03 -5.3272633968614843e-03 0.0000000000000000e+00  7.1505051800104154e-04 -5.2010875226103622e-03 0.0000000000000000e+00  2.9614917317093576e-04 -5.0790513372060463e-03 0.0000000000000000e+00  -1.3195707789193139e-04 -4.9617971940502121e-03 0.0000000000000000e+00  -5.6669012749058711e-04 -4.8503443030095302e-03 0.0000000000000000e+00  -1.0024169534213732e-03 -4.7460279788686822e-03 0.0000000000000000e+00  -1.4277471552918849e-03 -4.6507263216417323e-03 0.0000000000000000e+00  -1.8220347890227310e-03 -4.5667049944368996e-03 0.0000000000000000e+00  -2.1546277195020735e-03 -4.4977247607672745e-03 0.0000000000000000e+00  -2.3877450585645618e-03 -4.4474101529111184e-03 0.0000000000000000e+00  -1.0416606719285806e-02 -1.3176804729156086e-02 0.0000000000000000e+00  4.7914690229006567e-03 -1.6014207811504769e-02 0.0000000000000000e+00  -2.2907046890571496e-03 -1.2611601014132896e-02 0.0000000000000000e+00  9.9059466341721507e-04 -1.0512276919480434e-02 0.0000000000000000e+00  -8.8853717462365344e-04 -1.5644279527183062e-02 0.0000000000000000e+00  1.4139138538066282e-03 -5.7101331424166291e-02 0.0000000000000000e+00  4.6935625520119649e-03 -7.0024298377117135e-03 0.0000000000000000e+00  1.2057236627361945e-04 -2.1205587421178781e-02 0.0000000000000000e+00  1.1509942859361407e-03 -1.6079709030291604e-02 0.0000000000000000e+00  -5.1971320013231015e-03 -9.1547181493388634e-03 0.0000000000000000e+00  -2.3019062538163731e-03 -1.8736435353217600e-02 0.0000000000000000e+00  4.2554336554177247e-03 -9.5240477865479178e-03 0.0000000000000000e+00  2.6588498964917186e-02 -6.6071714509736798e-02 0.0000000000000000e+00  -1.7578286971338378e-04 -8.7791108021348582e-03 0.0000000000000000e+00  -2.3699142216145616e-03 -6.4495335008504908e-03 0.0000000000000000e+00  1.1646860451978683e-03 -1.3109872697723488e-02 0.0000000000000000e+00  -3.2974776292858683e-03 -8.7627000121205407e-03 0.0000000000000000e+00  -1.4967360272452866e-03 -1.2945407997045357e-02 0.0000000000000000e+00  -6.0851651643113866e-03 -1.5273820231049843e-02 0.0000000000000000e+00  -6.4991139915732002e-04 -7.5853372887008212e-03 0.0000000000000000e+00  -2.0555151115108066e-03 -1.6765947703317709e-02 0.0000000000000000e+00  5.7862763008026449e-03 -1.0359686723352966e-02 0.0000000000000000e+00  1.4660220815284600e-03 -1.4124172697850558e-02 0.0000000000000000e+00  -1.5750513445711191e-02 -2.2008742076894426e-02 0.0000000000000000e+00  4.6005042881905739e-03 -7.9950355477387911e-03 0.0000000000000000e+00  1.4942031087001027e-03 -1.6805299912105928e-02 0.0000000000000000e+00  9.8464033911642174e-03 -1.8868711809944531e-02 0.0000000000000000e+00  1.3026695761666256e-02 -2.0633905162331656e-02 0.0000000000000000e+00  -1.0175164124232728e-03 -1.6156658688103617e-02 0.0000000000000000e+00  -1.3110239716942350e-03 -1.6228891697929945e-02 0.0000000000000000e+00  2.6405012591599664e-03 -8.0605537011393998e-03 0.0000000000000000e+00  -2.2405420616117881e-02 -1.8666448749306917e-02 0.0000000000000000e+00  6.3984343999508959e-03 -1.0850911455458965e-02 0.0000000000000000e+00  1.9459396680340715e-03 -1.7215137553556928e-02 0.0000000000000000e+00  1.5308794979920729e-03 -6.8558887502649319e-03 0.0000000000000000e+00  -5.9746390782092354e-03 -3.0228083301869709e-02 0.0000000000000000e+00  7.5703399143769458e-04 -2.5748411269207849e-02 0.0000000000000000e+00  -1.7791200764985899e-03 -1.0242986072375088e-02 0.0000000000000000e+00  -2.6308614747908572e-03 -1.4953446280083315e-02 0.0000000000000000e+00  -3